# vtk DataFile Version 2.0
 temperature
 ASCII
 DATASET UNSTRUCTURED_GRID
 POINTS         773  double
   0.0000000000000000        0.0000000000000000        0.0000000000000000     
   3.5000000000000000        0.0000000000000000        0.0000000000000000     
   3.5000000000000000        40.000000000000000        0.0000000000000000     
   0.0000000000000000        40.000000000000000        0.0000000000000000     
  0.43750000000000000        0.0000000000000000        0.0000000000000000     
  0.87500000000000000        0.0000000000000000        0.0000000000000000     
   1.3125000000000000        0.0000000000000000        0.0000000000000000     
   1.7500000000000000        0.0000000000000000        0.0000000000000000     
   2.1875000000000000        0.0000000000000000        0.0000000000000000     
   2.6250000000000000        0.0000000000000000        0.0000000000000000     
   3.0625000000000000        0.0000000000000000        0.0000000000000000     
   3.5000000000000000       0.50000000000000000        0.0000000000000000     
   3.5000000000000000        1.0000000000000000        0.0000000000000000     
   3.5000000000000000        1.5000000000000000        0.0000000000000000     
   3.5000000000000000        2.0000000000000000        0.0000000000000000     
   3.5000000000000000        2.5000000000000000        0.0000000000000000     
   3.5000000000000000        3.0000000000000000        0.0000000000000000     
   3.5000000000000000        3.5000000000000000        0.0000000000000000     
   3.5000000000000000        4.0000000000000000        0.0000000000000000     
   3.5000000000000000        4.5000000000000000        0.0000000000000000     
   3.5000000000000000        5.0000000000000000        0.0000000000000000     
   3.5000000000000000        5.5000000000000000        0.0000000000000000     
   3.5000000000000000        6.0000000000000000        0.0000000000000000     
   3.5000000000000000        6.5000000000000000        0.0000000000000000     
   3.5000000000000000        7.0000000000000000        0.0000000000000000     
   3.5000000000000000        7.5000000000000000        0.0000000000000000     
   3.5000000000000000        8.0000000000000000        0.0000000000000000     
   3.5000000000000000        8.5000000000000000        0.0000000000000000     
   3.5000000000000000        9.0000000000000000        0.0000000000000000     
   3.5000000000000000        9.5000000000000000        0.0000000000000000     
   3.5000000000000000        10.000000000000000        0.0000000000000000     
   3.5000000000000000        10.500000000000000        0.0000000000000000     
   3.5000000000000000        11.000000000000000        0.0000000000000000     
   3.5000000000000000        11.500000000000000        0.0000000000000000     
   3.5000000000000000        12.000000000000000        0.0000000000000000     
   3.5000000000000000        12.500000000000000        0.0000000000000000     
   3.5000000000000000        13.000000000000000        0.0000000000000000     
   3.5000000000000000        13.500000000000000        0.0000000000000000     
   3.5000000000000000        14.000000000000000        0.0000000000000000     
   3.5000000000000000        14.500000000000000        0.0000000000000000     
   3.5000000000000000        15.000000000000000        0.0000000000000000     
   3.5000000000000000        15.500000000000000        0.0000000000000000     
   3.5000000000000000        16.000000000000000        0.0000000000000000     
   3.5000000000000000        16.500000000000000        0.0000000000000000     
   3.5000000000000000        17.000000000000000        0.0000000000000000     
   3.5000000000000000        17.500000000000000        0.0000000000000000     
   3.5000000000000000        18.000000000000000        0.0000000000000000     
   3.5000000000000000        18.500000000000000        0.0000000000000000     
   3.5000000000000000        19.000000000000000        0.0000000000000000     
   3.5000000000000000        19.500000000000000        0.0000000000000000     
   3.5000000000000000        20.000000000000000        0.0000000000000000     
   3.5000000000000000        20.500000000000000        0.0000000000000000     
   3.5000000000000000        21.000000000000000        0.0000000000000000     
   3.5000000000000000        21.500000000000000        0.0000000000000000     
   3.5000000000000000        22.000000000000000        0.0000000000000000     
   3.5000000000000000        22.500000000000000        0.0000000000000000     
   3.5000000000000000        23.000000000000000        0.0000000000000000     
   3.5000000000000000        23.500000000000000        0.0000000000000000     
   3.5000000000000000        24.000000000000000        0.0000000000000000     
   3.5000000000000000        24.500000000000000        0.0000000000000000     
   3.5000000000000000        25.000000000000000        0.0000000000000000     
   3.5000000000000000        25.500000000000000        0.0000000000000000     
   3.5000000000000000        26.000000000000000        0.0000000000000000     
   3.5000000000000000        26.500000000000000        0.0000000000000000     
   3.5000000000000000        27.000000000000000        0.0000000000000000     
   3.5000000000000000        27.500000000000000        0.0000000000000000     
   3.5000000000000000        28.000000000000000        0.0000000000000000     
   3.5000000000000000        28.500000000000000        0.0000000000000000     
   3.5000000000000000        29.000000000000000        0.0000000000000000     
   3.5000000000000000        29.500000000000000        0.0000000000000000     
   3.5000000000000000        30.000000000000000        0.0000000000000000     
   3.5000000000000000        30.500000000000000        0.0000000000000000     
   3.5000000000000000        31.000000000000000        0.0000000000000000     
   3.5000000000000000        31.500000000000000        0.0000000000000000     
   3.5000000000000000        32.000000000000000        0.0000000000000000     
   3.5000000000000000        32.500000000000000        0.0000000000000000     
   3.5000000000000000        33.000000000000000        0.0000000000000000     
   3.5000000000000000        33.500000000000000        0.0000000000000000     
   3.5000000000000000        34.000000000000000        0.0000000000000000     
   3.5000000000000000        34.500000000000000        0.0000000000000000     
   3.5000000000000000        35.000000000000000        0.0000000000000000     
   3.5000000000000000        35.500000000000000        0.0000000000000000     
   3.5000000000000000        36.000000000000000        0.0000000000000000     
   3.5000000000000000        36.500000000000000        0.0000000000000000     
   3.5000000000000000        37.000000000000000        0.0000000000000000     
   3.5000000000000000        37.500000000000000        0.0000000000000000     
   3.5000000000000000        38.000000000000000        0.0000000000000000     
   3.5000000000000000        38.500000000000000        0.0000000000000000     
   3.5000000000000000        39.000000000000000        0.0000000000000000     
   3.5000000000000000        39.500000000000000        0.0000000000000000     
   3.0625000000000000        40.000000000000000        0.0000000000000000     
   2.6250000000000000        40.000000000000000        0.0000000000000000     
   2.1875000000000000        40.000000000000000        0.0000000000000000     
   1.7500000000000000        40.000000000000000        0.0000000000000000     
   1.3125000000000000        40.000000000000000        0.0000000000000000     
  0.87500000000000000        40.000000000000000        0.0000000000000000     
  0.43750000000000000        40.000000000000000        0.0000000000000000     
   0.0000000000000000        39.500000000000000        0.0000000000000000     
   0.0000000000000000        39.000000000000000        0.0000000000000000     
   0.0000000000000000        38.500000000000000        0.0000000000000000     
   0.0000000000000000        38.000000000000000        0.0000000000000000     
   0.0000000000000000        37.500000000000000        0.0000000000000000     
   0.0000000000000000        37.000000000000000        0.0000000000000000     
   0.0000000000000000        36.500000000000000        0.0000000000000000     
   0.0000000000000000        36.000000000000000        0.0000000000000000     
   0.0000000000000000        35.500000000000000        0.0000000000000000     
   0.0000000000000000        35.000000000000000        0.0000000000000000     
   0.0000000000000000        34.500000000000000        0.0000000000000000     
   0.0000000000000000        34.000000000000000        0.0000000000000000     
   0.0000000000000000        33.500000000000000        0.0000000000000000     
   0.0000000000000000        33.000000000000000        0.0000000000000000     
   0.0000000000000000        32.500000000000000        0.0000000000000000     
   0.0000000000000000        32.000000000000000        0.0000000000000000     
   0.0000000000000000        31.500000000000000        0.0000000000000000     
   0.0000000000000000        31.000000000000000        0.0000000000000000     
   0.0000000000000000        30.500000000000000        0.0000000000000000     
   0.0000000000000000        30.000000000000000        0.0000000000000000     
   0.0000000000000000        29.500000000000000        0.0000000000000000     
   0.0000000000000000        29.000000000000000        0.0000000000000000     
   0.0000000000000000        28.500000000000000        0.0000000000000000     
   0.0000000000000000        28.000000000000000        0.0000000000000000     
   0.0000000000000000        27.500000000000000        0.0000000000000000     
   0.0000000000000000        27.000000000000000        0.0000000000000000     
   0.0000000000000000        26.500000000000000        0.0000000000000000     
   0.0000000000000000        26.000000000000000        0.0000000000000000     
[...]
 CELL_DATA        1368
 SCALARS T double
 LOOKUP_TABLE default
   20.255307147490996     
   22.304752222593276     
   1671.4329044869482     
   36.922089261250356     
   20.000000001990450     
   20.585757937407852     
   1275.1382569136458     
   20.520596373161371     
   20.018295894431624     
   20.418967868400095     
   20.032389002366973     
   31.546713069533986     
   20.370456923942847     
   38.441424216968379     
   32.567425608698464     
   1207.9814577979980     
   1672.4652436157189     
   20.079974879542966     
   20.069205079381579     
   20.955400189495563     
   20.055021710576810     
   20.001681863618263     
   1733.2701552929168     
   20.003195139784186     
   20.212671356989301     
   22.355060966777522     
   20.046348924515687     
   20.704906757623302     
   20.291764336942489     
   20.021965873724927     
   20.976806946289528     
   20.000000004256620     
   21.960308566225041     
   22.527646017781809     
   22.553254061900954     
   20.000000003404214     
   20.135248480838907     
   20.008525447038302     
   20.037707291216815     
   20.007245723219146     
   20.004554343832975     
   20.374705029886378     
   20.005605629248873     
   37.032061456640747     
   20.098115707057687     
   415.02999268232503     
   407.61452322360782     
   20.301615271033345     
   20.419001825867227     
   688.04401436903834     
   691.80811243152380     
   20.026178938031844     
   20.140692486412544     
   20.000000003161990     
   1705.4558664391791     
   20.000000002641897     
   20.000000010148128     
   20.001404167939054     
   20.000715859864123     
   20.002096406756074     
   20.000000014179943     
   36.011549822557299     
   20.003723284492864     
   20.000000034624996     
   20.801208612198305     
   21.065785315533272     
   20.014916704394690     
   21.050815758647122     
   20.036988717664283     
   20.053335766597232     
   20.000000007841109     
   1673.1958405309174     
   20.000000018542572     
   20.048142230784396     
   20.010571052451429     
   20.016036352550245     
   20.000000058342714     
   20.000000191798900     
   20.000000005914856     
   390.28404589536621     
   20.002522518346751     
   20.000614089217052     
   229.34457710635061     
   20.000291264903449     
   136.04331820736476     
   20.110877139776470     
   20.154793042753465     
   386.52881960292501     
   20.001113714802390     
   853.11859558606398     
   20.003533739794303     
   20.005369855688944     
   51.499371340929791     
   20.000000996202655     
   797.10827902248923     
   20.000087669419806     
   35.274293896075910     
   20.000000315104405     
   20.000117616100955     
   20.000000081032294     
   227.81174191411444     
   20.000000045355012     
   202.77646195841254     
   205.19619401851270     
   20.004781724640331     
   20.000931085337470     
   20.000000005757123     
   20.016029221556320     
   20.000000004488101     
   20.000000102789294     
   24.497566893434300     
   503.38463413582861     
   23.483600665934503     
   20.000041617344809     
   20.000000025898149     
   20.000000002013682     
   123.22928776988076     
   21.451515618748122     
   124.37072652551490     
   20.000012748737596     
   20.000000045571994     
   20.000037320578532     
   20.000544125930293     
   135.17965579633528     
   20.573004888326967     
   288.39819851766958     
   20.012035672565592     
   20.017239285516755     
   20.000381771039144     
   20.158267443908052     
   20.000000007873250     
   20.000054483815401     
   513.45498600336725     
   20.211794175497538     
   20.000000248016701     
   20.000001611317920     
   20.073281652297283     
   76.604571801769879     
   1316.1187763499297     
   77.227314608304894     
   1002.8003435196543     
   471.37078256717348     
   171.31094817617893     
   20.000067006231671     
   20.000241749371707     
   20.000010477926054     
   493.95239654417685     
   20.000152372892657     
   20.000000145029730     
   20.000000249809293     
   20.000012493232305     
   292.09294974247666     
   20.000220485776335     
   49.700846432706932     
   49.929186290121436     
   20.000000432230408     
   20.000009089050394     
   101.96896717407193     
   20.000459048351892     
   20.000001267988427     
   20.000000545296615     
   20.000000025200183     
   33.733426366683801     
   51.211617487627933     
   20.001445263265381     
   20.798186144777592     
   20.000001282031800     
   20.000000001832142     
   232.28205565802270     
   173.38983721347421     
   20.000028073941017     
   20.000004522407483     
   20.000000755785972     
   35.144453399402273     
   41.230316045489857     
   20.000006637855357     
   1007.0156954188860     
   20.113892008947207     
   102.83612509438261     
   20.000002183537823     
   150.33732156039821     
   142.56127017179500     
   30.020139143715362     
   20.000002708612016     
   28.750938850136802     
   20.000014037235047     
   20.000420259078897     
   20.000658207949524     
   47.903690379918409     
   20.000000005543622     
   246.99704575032001     
   20.012495648354431     
   23.177088444622928     
   23.152443290622735     
   24.956277141734891     
   20.000000002685731     
   570.06975514898761     
   20.000017945198053     
   20.000000004968026     
   20.000003698308014     
   23.410242940944212     
   20.000006204504594     
   92.224924524079910     
   20.000170376506620     
   20.000268376189680     
   20.000034518004998     
   87.680343307213477     
   21.696776049205386     
   20.000004547922902     
   20.000000006357578     
   20.000007624959441     
   20.000000013027933     
   22.108616108407421     
   20.000000002346738     
   20.000042590983654     
   20.000002695507138     
   20.000089687028936     
   20.000184390339584     
   20.017869419080480     
   20.000010269434345     
   21.420144248460566     
   20.000000007230554     
   20.000393951766490     
   46.040917806579486     
   20.000106930678889     
   41.560373354435242     
   20.000110817088228     
   20.000001598376084     
   20.000000003898798     
   20.000002046852082     
   20.000020555200926     
   20.000000010000395     
   20.560071053838019     
   20.000000141033681     
   20.852448360294932     
   20.000001213944216     
   20.000359862361226     
   20.000000004319705     
   20.206891625431584     
   20.000440015808383     
   27.545489126851809     
   30.147636846221548     
   310.67671414722395     
   20.264877872041193     
   44.354780726916324     
   58.439215077488250     
   1428.9889233931967     
   55.926226895411709     
   20.071552164273232     
   20.000000940644373     
   20.000000318454248     
   20.001358712317156     
   20.000020996511562     
   20.324240735592216     
   1509.8026968405711     
   20.000000237884063     
   20.000000712713270     
   20.000003421401313     
   20.001642378244675     
   20.000025974308169     
   20.000000013885430     
   727.35108748998664     
   562.46237148972716     
   20.004810394539788     
   20.000707729984924     
   20.000096503926734     
   20.115872632713980     
   20.000000012541044     
   20.005754994135334     
   1453.7918794491031     
   25.083821796861116     
   20.032814498368836     
   20.000015765082228     
   20.000024471036955     
   20.000014863049380     
   20.000000013547719     
   20.015995289333041     
   20.000000012332080     
   1372.7252132359097     
   1186.4596634614875     
   20.000000001670031     
   1244.0046452399381     
   20.000000015820945     
   20.018938209130933     
   1359.7538522735695     
   20.000596048186079     
   26.699087041179201     
   857.93045358757570     
   1382.2258775984030     
   20.000000069751497     
   22.173609262829672     
   20.000000003352323     
   20.000000551735813     
   20.000015530682624     
   20.000025719290171     
   20.000000183450421     
   20.000000005903644     
   20.000000077002230     
   20.000000004872899     
   910.10154793563981     
   20.879375574224294     
   20.000000412487385     
   644.10447002222998     
   20.000000004275428     
   20.000000135629488     
   20.334831025577444     
   20.119712399709417     
   20.000000002028674     
   20.000000003308703     
   1166.8768619983189     
   20.000000009573373     
   1283.0706296933442     
   1059.5367551753309     
   20.000022919840713     
   20.000017276188224     
   1470.9898737485580     
   26.286051739652962     
   315.62301410855690     
   20.003161772369157     
   20.000000005308198     
   20.000000002959041     
   20.000000014254852     
   767.10533099104703     
   20.000006348375386     
   20.000000008738791     
   20.000000741024198     
   20.000005128955049     
   20.000228123316258     
   1309.4870304776780     
   758.19166713564823     
   20.000000005338222     
   20.000000010782017     
   41.177238758660877     
   1187.5210699102943     
   20.000005656144491     
   20.000000024406777     
   1204.7577200082342     
   1278.3064426067806     
   20.000276883889743     
   20.000055938652508     
   994.74397266576352     
   20.000000009103786     
   20.000000077408011     
   20.000000033723534     
   20.000000043698364     
   898.88810564819914     
   20.000068619391911     
   20.000000059501915     
   20.000000088413067     
   25.590482147846927     
   24.021975285494793     
   20.000000030594709     
   20.000000007698311     
   20.000455315603091     
   20.000000019360868     
   1128.9245508631805     
   20.000000053957397     
   1025.3143850199301     
   20.000000022248528     
   844.99003801877234     
   20.000000006903868     
   960.01709539816829     
   762.67072098082531     
   1021.9461462223704     
   1196.8763821883797     
   1020.4026174914886     
   20.000000017892855     
   20.000000007601511     
   20.000000017264778     
   859.31792729687982     
   822.56334809445900     
   744.26929468540686     
   717.48452986050904     
   1104.4661692367772     
   645.49625087828383     
   20.000005499253124     
   20.000000024671095     
   20.000000122993463     
   20.000000105517611     
   1226.2621387908889     
   870.51802353743585     
   876.62580563629945     
   948.91614793224028     
   612.84326125015298     
   701.51502693998771     
   20.000000109520840     
   20.000000080986574     
   20.000000464438525     
   538.07638843001826     
   811.77733210051883     
   536.14376604930976     
   20.000000154713302     
   20.000000840930070     
   20.000001185172973     
   609.81942269108765     
   452.93277458171957     
   744.16678089750474     
   20.000000406238915     
   588.74027693262565     
   630.90180072206488     
   20.000000135149332     
   20.000000643668127     
   637.58117372881736     
   20.000002001660437     
   20.000000691600579     
   517.07723614106578     
   20.000001428800768     
   20.000000580558989     
   20.000000434652971     
   20.000002289731981     
   545.08191784685266     
   435.87143581648945     
   460.27503619838467     
   20.000000166240913     
   366.37909840984997     
   388.73676568867609     
   20.000004863848734     
   20.000006300892828     
   20.000000236467852     
   20.000006489619835     
   691.90835268799970     
   20.000017056427346     
   20.000021451775179     
   20.000028121505327     
   20.000008152620669     
   284.20129645757646     
   20.000013490841042     
   20.000010431981842     
   380.43795049365042     
   20.000028432902887     
   20.000017255035200     
   20.000000286237725     
   20.000045712203665     
   20.000039656403811     
   20.000029119069282     
   20.000073894317254     
   20.000022224734956     
   20.000189140829114     
   20.000234056767244     
   20.000747166535231     
   20.000475251765664     
   20.000381281894011     
   20.000597194664280     
   20.001141838597952     
   20.004081247378615     
   20.001435676478838     
   20.001152197169720     
   20.002728936256744     
   20.001779719576046     
   20.013702296772262     
   20.005075842924587     
   20.004117349143623     
   20.009358138565002     
   20.006227578784252     
   20.007294259951948     
   20.002202158146549     
   20.010837100017532     
   20.008271646189939     
   20.005607355248284     
   20.004869647671317     
   20.043045209593618     
   20.016857141192077     
   20.013819973598480     
   20.030148020243871     
   20.020470025019346     
   20.007625179333541     
   367.17912193218672     
   20.127549871816356     
   20.052634741477675     
   20.043520209761390     
   20.090804259409634     
   20.062899142050821     
   20.024804652621022     
   20.099961828083384     
   20.075899729537092     
   20.047434437690789     
   20.068255587195882     
   20.355202343401498     
   20.154209036211604     
   20.128892743297076     
   20.258037114365333     
   20.182975269384187     
   20.075838195583025     
   20.053819949090862     
   20.931241401566471     
   20.424877262297368     
   20.358827625675794     
   20.689684035263895     
   20.499161514458859     
   20.217601244986799     
   20.692164713572890     
   20.546102550329849     
   20.361361886540923     
   20.499616645326348     
   22.300251291055087     
   21.102123452523649     
   20.940355294376207     
   21.738176269862535     
   21.279738424163291     
   20.587525738195875     
   221.30849987199747     
   253.19526149500601     
   232.75479473354920     
   20.401745088978331     
   23.090296784233118     
   117.93324224752773     
   270.18639861464027     
   126.98553904859227     
   114.13525404647136     
   132.37277380002956     
   25.361391495562060     
   256.01118129876187     
   218.37922595574904     
   274.47571249076321     
   22.694821622096750     
   22.322063857539060     
   62.105219920397076     
   213.10278327118255     
   107.28793383713513     
   58.788806262861328     
   129.85780472645274     
   21.494214331662359     
   96.338363442796449     
   221.58019009066001     
   23.593096585126037     
   24.133201701041116     
   303.05019240606345     
   180.38623177728701     
   160.75821511707181     
   110.07618223386257     
   35.124314604880027     
   93.542987544841893     
   29.154059931776906     
   28.351694236206576     
   68.740096745688291     
   36.263855976801942     
   312.95370281225456     
   26.212466579931764     
   25.408544328035244     
   227.40134606951383     
   29.278830878767224     
   218.66302854907028     
   69.762273502261294     
   139.66780803238615     
   35.301604008199625     
   154.98900014964977     
   156.37894863387558     
   150.66264232889051     
   216.75794635154409     
   27.028259539396501     
   135.68845451182324     
   81.505092280872972     
   81.947529172989761     
   276.54176753755218     
   81.917294961252622     
   309.09528616533896     
   53.096730514478153     
   58.874437492483814     
   67.489007764172186     
   191.55123116106915     
   321.56314245662014     
   38.866386284859502     
   165.29068846974786     
   259.79340926013617     
   20.000075084974121     
   61.373581550444946     
   65.342120487595423     
   304.63567581165745     
   20.000252423932377     
   20.000101617094170     
   51.680178808409622     
   28.111096280896167     
   71.709608466443342     
   117.37169622762084     
   432.73395075752939     
   308.70198851587276     
   221.76810454872620     
   252.94493201213899     
   134.41328560504104     
   83.917065848373213     
   54.368885381583510     
   37.714274022721511     
   28.709472773429702     
   24.035408333880316     
   21.785983421393752     
   20.742458571729664     
   20.292332438668925     
   20.107927384518469     
   20.037563986808255     
   20.012092629201113     
   20.003779192514966     
   20.001079850218634     
   20.000294578676829     
   20.000188111979970     
   20.000119112235147     
   20.000160823478421     
   20.000046819526425     
   20.000063720086523     
   20.000010989680792     
   20.000002405640153     
   20.000000492854369     
   20.000000095292023     
   20.000074921859024     
   20.000000062159994     
   20.000000336895585     
   20.000001709413386     
   20.000008171557912     
   20.000036473650024     
   20.000095360401399     
   20.000152069317100     
   20.000120410750466     
   20.000241739880384     
   20.000192217422978     
   20.000933316541101     
   20.003368679995496     
   20.011420307041860     
   20.036386104104107     
   20.108870224275993     
   20.306057451534652     
   20.809761689153344     
   22.018317993609564     
   24.746165080917358     
   30.552102328475673     
   42.253835392432606     
   64.708761877678171     
   75.816816896246166     
   69.631031700898731     
   89.479417432203334     
   105.73098441446758     
   177.63416666893946     
   299.00319637292864     
   497.63479316780638     
   76.674839560470076     
   184.27780318357890     
   195.86190492415273     
   130.76066603305094     
   20.000046351835678     
   90.292736513890858     
   259.98566379815122     
   49.972183324744123     
   99.038714405573941     
   37.870147355722779     
   20.000058921545058     
   42.880379534489030     
   83.972753130770457     
   233.23215732539367     
   52.860862225355511     
   327.69721007449436     
   35.436458404551558     
   58.083262162075648     
   139.12807610445500     
   99.386367659337267     
   46.494689152415731     
   93.086333711984281     
   39.517577388816001     
   40.730448996919137     
   36.346660593753121     
   49.688161767271055     
   43.982829370196548     
   111.70101324165989     
   261.79644800772797     
   153.78648757114246     
   96.480209930775430     
   39.754507896665700     
   29.292572939309970     
   48.800314046523937     
   94.273328765511920     
   59.748256626184521     
   45.086273493615138     
   56.311796422840608     
   32.028266299678407     
   79.142171687136837     
   33.962107747785232     
   34.385517996634370     
   29.798074079587614     
   32.681709149712340     
   31.542228215222579     
   130.64057373616092     
   34.819144847532947     
   133.69432302505879     
   27.169472417669272     
   30.918480529234877     
   79.973543863093937     
   28.898366656000558     
   23.149914702356050     
   27.401287083689017     
   80.481458704159209     
   72.172815314130162     
   84.626331022674236     
   26.793998979803426     
   24.156513885480411     
   164.66941768543717     
   23.438332476047556     
   195.48796415060613     
   25.773147771376205     
   25.268421318982003     
   21.319322170939824     
   23.545556901135203     
   24.396665860797082     
   186.05574879818869     
   23.250046692989184     
   23.986820525610266     
   23.153321006992631     
   23.345581435686949     
   21.458502424874759     
   22.999911604641426     
   21.754227904452492     
   22.527381388499279     
   22.262560239177720     
   21.897393014233202     
   20.515848257337346     
   21.310647401111552     
   21.687050509252423     
   21.403883184293939     
   21.246895737849723     
   20.583690522926037     
   20.701641675627364     
   21.039456439585454     
   20.921813931753583     
   20.763838464791789     
   20.193346024817327     
   20.513236163421112     
   20.672982627191686     
   20.553382637840887     
   20.487235916553452     
   20.217848692001812     
   20.267760292486312     
   20.402265189724165     
   20.353163143797637     
   20.290261500760980     
   20.067452369217108     
   20.189442791799557     
   20.253117887334540     
   20.206494280064440     
   20.179921537409626     
   20.078094035954489     
   20.095269019600245     
   20.146914519146293     