# vtk DataFile Version 2.0
 temperature
 ASCII
 DATASET UNSTRUCTURED_GRID
 POINTS         773  double
   0.0000000000000000        0.0000000000000000        0.0000000000000000     
   3.5000000000000000        0.0000000000000000        0.0000000000000000     
   3.5000000000000000        40.000000000000000        0.0000000000000000     
   0.0000000000000000        40.000000000000000        0.0000000000000000     
  0.43750000000000000        0.0000000000000000        0.0000000000000000     
  0.87500000000000000        0.0000000000000000        0.0000000000000000     
   1.3125000000000000        0.0000000000000000        0.0000000000000000     
   1.7500000000000000        0.0000000000000000        0.0000000000000000     
   2.1875000000000000        0.0000000000000000        0.0000000000000000     
   2.6250000000000000        0.0000000000000000        0.0000000000000000     
   3.0625000000000000        0.0000000000000000        0.0000000000000000     
   3.5000000000000000       0.50000000000000000        0.0000000000000000     
   3.5000000000000000        1.0000000000000000        0.0000000000000000     
   3.5000000000000000        1.5000000000000000        0.0000000000000000     
   3.5000000000000000        2.0000000000000000        0.0000000000000000     
   3.5000000000000000        2.5000000000000000        0.0000000000000000     
   3.5000000000000000        3.0000000000000000        0.0000000000000000     
   3.5000000000000000        3.5000000000000000        0.0000000000000000     
   3.5000000000000000        4.0000000000000000        0.0000000000000000     
   3.5000000000000000        4.5000000000000000        0.0000000000000000     
   3.5000000000000000        5.0000000000000000        0.0000000000000000     
   3.5000000000000000        5.5000000000000000        0.0000000000000000     
   3.5000000000000000        6.0000000000000000        0.0000000000000000     
   3.5000000000000000        6.5000000000000000        0.0000000000000000     
   3.5000000000000000        7.0000000000000000        0.0000000000000000     
   3.5000000000000000        7.5000000000000000        0.0000000000000000     
   3.5000000000000000        8.0000000000000000        0.0000000000000000     
   3.5000000000000000        8.5000000000000000        0.0000000000000000     
   3.5000000000000000        9.0000000000000000        0.0000000000000000     
   3.5000000000000000        9.5000000000000000        0.0000000000000000     
   3.5000000000000000        10.000000000000000        0.0000000000000000     
   3.5000000000000000        10.500000000000000        0.0000000000000000     
   3.5000000000000000        11.000000000000000        0.0000000000000000     
   3.5000000000000000        11.500000000000000        0.0000000000000000     
   3.5000000000000000        12.000000000000000        0.0000000000000000     
   3.5000000000000000        12.500000000000000        0.0000000000000000     
   3.5000000000000000        13.000000000000000        0.0000000000000000     
   3.5000000000000000        13.500000000000000        0.0000000000000000     
   3.5000000000000000        14.000000000000000        0.0000000000000000     
   3.5000000000000000        14.500000000000000        0.0000000000000000     
   3.5000000000000000        15.000000000000000        0.0000000000000000     
   3.5000000000000000        15.500000000000000        0.0000000000000000     
   3.5000000000000000        16.000000000000000        0.0000000000000000     
   3.5000000000000000        16.500000000000000        0.0000000000000000     
   3.5000000000000000        17.000000000000000        0.0000000000000000     
   3.5000000000000000        17.500000000000000        0.0000000000000000     
   3.5000000000000000        18.000000000000000        0.0000000000000000     
   3.5000000000000000        18.500000000000000        0.0000000000000000     
   3.5000000000000000        19.000000000000000        0.0000000000000000     
   3.5000000000000000        19.500000000000000        0.0000000000000000     
   3.5000000000000000        20.000000000000000        0.0000000000000000     
   3.5000000000000000        20.500000000000000        0.0000000000000000     
   3.5000000000000000        21.000000000000000        0.0000000000000000     
   3.5000000000000000        21.500000000000000        0.0000000000000000     
   3.5000000000000000        22.000000000000000        0.0000000000000000     
   3.5000000000000000        22.500000000000000        0.0000000000000000     
   3.5000000000000000        23.000000000000000        0.0000000000000000     
   3.5000000000000000        23.500000000000000        0.0000000000000000     
   3.5000000000000000        24.000000000000000        0.0000000000000000     
   3.5000000000000000        24.500000000000000        0.0000000000000000     
   3.5000000000000000        25.000000000000000        0.0000000000000000     
   3.5000000000000000        25.500000000000000        0.0000000000000000     
   3.5000000000000000        26.000000000000000        0.0000000000000000     
   3.5000000000000000        26.500000000000000        0.0000000000000000     
   3.5000000000000000        27.000000000000000        0.0000000000000000     
   3.5000000000000000        27.500000000000000        0.0000000000000000     
   3.5000000000000000        28.000000000000000        0.0000000000000000     
   3.5000000000000000        28.500000000000000        0.0000000000000000     
   3.5000000000000000        29.000000000000000        0.0000000000000000     
   3.5000000000000000        29.500000000000000        0.0000000000000000     
   3.5000000000000000        30.000000000000000        0.0000000000000000     
   3.5000000000000000        30.500000000000000        0.0000000000000000     
   3.5000000000000000        31.000000000000000        0.0000000000000000     
   3.5000000000000000        31.500000000000000        0.0000000000000000     
   3.5000000000000000        32.000000000000000        0.0000000000000000     
   3.5000000000000000        32.500000000000000        0.0000000000000000     
   3.5000000000000000        33.000000000000000        0.0000000000000000     
   3.5000000000000000        33.500000000000000        0.0000000000000000     
   3.5000000000000000        34.000000000000000        0.0000000000000000     
   3.5000000000000000        34.500000000000000        0.0000000000000000     
   3.5000000000000000        35.000000000000000        0.0000000000000000     
   3.5000000000000000        35.500000000000000        0.0000000000000000     
   3.5000000000000000        36.000000000000000        0.0000000000000000     
   3.5000000000000000        36.500000000000000        0.0000000000000000     
   3.5000000000000000        37.000000000000000        0.0000000000000000     
   3.5000000000000000        37.500000000000000        0.0000000000000000     
   3.5000000000000000        38.000000000000000        0.0000000000000000     
   3.5000000000000000        38.500000000000000        0.0000000000000000     
   3.5000000000000000        39.000000000000000        0.0000000000000000     
   3.5000000000000000        39.500000000000000        0.0000000000000000     
   3.0625000000000000        40.000000000000000        0.0000000000000000     
   2.6250000000000000        40.000000000000000        0.0000000000000000     
   2.1875000000000000        40.000000000000000        0.0000000000000000     
   1.7500000000000000        40.000000000000000        0.0000000000000000     
   1.3125000000000000        40.000000000000000        0.0000000000000000     
  0.87500000000000000        40.000000000000000        0.0000000000000000     
  0.43750000000000000        40.000000000000000        0.0000000000000000     
   0.0000000000000000        39.500000000000000        0.0000000000000000     
   0.0000000000000000        39.000000000000000        0.0000000000000000     
   0.0000000000000000        38.500000000000000        0.0000000000000000     
   0.0000000000000000        38.000000000000000        0.0000000000000000     
   0.0000000000000000        37.500000000000000        0.0000000000000000     
   0.0000000000000000        37.000000000000000        0.0000000000000000     
   0.0000000000000000        36.500000000000000        0.0000000000000000     
   0.0000000000000000        36.000000000000000        0.0000000000000000     
   0.0000000000000000        35.500000000000000        0.0000000000000000     
   0.0000000000000000        35.000000000000000        0.0000000000000000     
   0.0000000000000000        34.500000000000000        0.0000000000000000     
   0.0000000000000000        34.000000000000000        0.0000000000000000     
   0.0000000000000000        33.500000000000000        0.0000000000000000     
   0.0000000000000000        33.000000000000000        0.0000000000000000     
   0.0000000000000000        32.500000000000000        0.0000000000000000     
   0.0000000000000000        32.000000000000000        0.0000000000000000     
   0.0000000000000000        31.500000000000000        0.0000000000000000     
   0.0000000000000000        31.000000000000000        0.0000000000000000     
   0.0000000000000000        30.500000000000000        0.0000000000000000     
   0.0000000000000000        30.000000000000000        0.0000000000000000     
   0.0000000000000000        29.500000000000000        0.0000000000000000     
   0.0000000000000000        29.000000000000000        0.0000000000000000     
   0.0000000000000000        28.500000000000000        0.0000000000000000     
   0.0000000000000000        28.000000000000000        0.0000000000000000     
   0.0000000000000000        27.500000000000000        0.0000000000000000     
   0.0000000000000000        27.000000000000000        0.0000000000000000     
   0.0000000000000000        26.500000000000000        0.0000000000000000     
   0.0000000000000000        26.000000000000000        0.0000000000000000     
[...]
 CELL_DATA        1368
 SCALARS T double
 LOOKUP_TABLE default
   20.484564853382341     
   23.554696920752573     
   1674.3504570253810     
   40.726346811577443     
   20.000000043164444     
   21.027677476775615     
   1277.6986802244103     
   20.931045027886530     
   20.047126420513688     
   20.763040999862604     
   20.078337435280709     
   34.906323238624246     
   20.700875110037931     
   42.612432291210631     
   36.074162947111560     
   1210.5997218073139     
   1675.4529716465820     
   20.176727297470503     
   20.156609297149270     
   21.623334639929272     
   20.127134891325909     
   20.005804396080912     
   1735.5670817782175     
   20.010259585774328     
   20.408942791949961     
   23.567689931127930     
   20.112017065484579     
   21.217595666964698     
   20.553657890863533     
   20.055684316967596     
   21.627677994985788     
   20.000000083872465     
   23.066698896616771     
   23.848163700029527     
   23.825035604822187     
   20.000000069069472     
   20.287746886774872     
   20.024687118473114     
   20.091099956385456     
   20.021549745208112     
   20.014616375346403     
   20.695962290758953     
   20.017082860823500     
   41.255486933073819     
   20.212839313728974     
   429.35107445719962     
   421.71822209727452     
   20.581852740069625     
   20.778019370311057     
   693.56418298325127     
   697.89145020117837     
   20.064423955430318     
   20.292605135764987     
   20.000000064519277     
   1707.3932506966389     
   20.000000055094965     
   20.000000177670007     
   20.005117730654842     
   20.002746402689446     
   20.007091102171835     
   20.000000237850671     
   39.947781676175936     
   20.011942538781060     
   20.000000518294446     
   21.382970841777112     
   21.782706773313652     
   20.041353248647898     
   21.732613448855421     
   20.091424795903773     
   20.126137831419850     
   20.000000142266391     
   1675.4806353042745     
   20.000000299887471     
   20.113781562151701     
   20.029983280483130     
   20.043263510715413     
   20.000000813065736     
   20.000002301389685     
   20.000000111737943     
   404.97483263825092     
   20.008267234421968     
   20.002422435839588     
   243.63288152458674     
   20.001284768951837     
   148.45319507428172     
   20.240434956953049     
   20.322806565748301     
   401.12627525847404     
   20.004153006269473     
   857.97616120758335     
   20.011642329991208     
   20.016794727589058     
   58.570118135256976     
   20.000009668428952     
   801.87606832148299     
   20.000461478107113     
   39.981196772662557     
   20.000003533093761     
   20.000581649242317     
   20.000001084104973     
   241.99308092316627     
   20.000000653904937     
   211.46479490100097     
   214.37799730128765     
   20.014975739989008     
   20.003484872098593     
   20.000000108705880     
   20.042184531642484     
   20.000000087960995     
   20.000001331723706     
   26.344286757045776     
   516.27934506410440     
   25.283789826121112     
   20.000239598609365     
   20.000000402310516     
   20.000000043477723     
   131.35220082426594     
   22.421869043328783     
   132.86771941075850     
   20.000088907419702     
   20.000000657874832     
   20.000214907147523     
   20.002276455168939     
   147.49414270330234     
   21.061832744116490     
   302.65996326401984     
   20.034100168011683     
   20.046752457700251     
   20.001638999978759     
   20.323493463391461     
   20.000000143029098     
   20.000304713769641     
   526.66506088570986     
   20.440641214956880     
   20.000002871961456     
   20.000014644988852     
   20.172992722293916     
   83.435875098919880     
   1319.0865946604356     
   84.354778727713480     
   1006.3793519347608     
   478.70884253284169     
   184.36371814126139     
   20.000362927102390     
   20.001099026218178     
   20.000070508281581     
   501.46274564027863     
   20.000733999413384     
   20.000001802908809     
   20.000002895278822     
   20.000087051679309     
   306.57188798783216     
   20.001033220537757     
   54.922805005343776     
   55.319823858864865     
   20.000004660107056     
   20.000061143422549     
   112.73458158242097     
   20.001860247508148     
   20.000011901165230     
   20.000005697775411     
   20.000000392024205     
   36.971247628203848     
   58.219633076928645     
   20.005116830280510     
   21.351049664304078     
   20.000012038371136     
   20.000000039884146     
   241.00046841758484     
   186.64331634590184     
   20.000166425034742     
   20.000034754867517     
   20.000007595763975     
   39.810841257461263     
   46.843901589784927     
   20.000046030598821     
   1010.9713731745181     
   20.241117442286075     
   113.74753376504124     
   20.000019116205525     
   159.15337439381406     
   150.99248687517624     
   33.607953989308577     
   20.000023032583801     
   31.629030528761660     
   20.000091650340561     
   20.001806337678111     
   20.002674482713516     
   53.694550668284506     
   20.000000104769686     
   256.11336912089916     
   20.034484773509995     
   24.602225874605431     
   24.581221340399864     
   27.192352682689698     
   20.000000052751425     
   577.06765389489635     
   20.000109570632073     
   20.000000093498222     
   20.000030260991718     
   25.172599664485951     
   20.000047508609807     
   99.894626456128563     
   20.000820593492211     
   20.001220545848472     
   20.000211199442290     
   94.971390597664325     
   22.665696609076768     
   20.000036185667025     
   20.000000115265223     
   20.000056784353927     
   20.000000219316266     
   23.351027562309465     
   20.000000046147743     
   20.000253174993713     
   20.000022127956640     
   20.000485972587903     
   20.000861095727313     
   20.047397504455400     
   20.000073716522042     
   22.369618168753323     
   20.000000131549942     
   20.001642580270452     
   51.624134835127983     
   20.000546112062089     
   47.265857248662357     
   20.000583262987220     
   20.000014031343770     
   20.000000073327445     
   20.000017312378766     
   20.000130190322036     
   20.000000174706070     
   21.038190422255465     
   20.000001755958245     
   21.497673784966686     
   20.000010981016743     
   20.001635142209853     
   20.000000081230812     
   20.430612744483120     
   20.001945054063938     
   30.163726254000334     
   33.788123972409430     
   321.35699818500274     
   20.512274085301808     
   49.319854583925874     
   64.483492337797813     
   1432.4591000341995     
   61.644636433964429     
   20.168931869456841     
   20.000008838805297     
   20.000003440815313     
   20.005223618910698     
   20.000136927505132     
   20.636352434818573     
   1513.8225678179924     
   20.000002653752762     
   20.000006902206007     
   20.000027096945985     
   20.006152953059146     
   20.000164438550819     
   20.000000215280526     
   736.21212114738444     
   568.80690653239344     
   20.015797016422237     
   20.002794595709915     
   20.000492493746794     
   20.256650783503385     
   20.000000210940833     
   20.018445102170904     
   1457.5514195582034     
   27.381002074195791     
   20.081259549762091     
   20.000106366692979     
   20.000145053743886     
   20.000093915362907     
   20.000000218828362     
   20.045292966923022     
   20.000000199041455     
   1378.7059438694789     
   1187.9753045177845     
   20.000000034039292     
   1249.3293736597657     
   20.000000245362511     
   20.052421169388357     
   1364.4373553935764     
   20.002420171545349     
   28.925721436439773     
   864.18177141242734     
   1387.1449667221382     
   20.000000899699973     
   23.454912788504082     
   20.000000068308221     
   20.000005552046343     
   20.000101388778901     
   20.000157428228917     
   20.000002127141254     
   20.000000107022572     
   20.000000993265122     
   20.000000088236163     
   916.92432237127036     
   21.545397381566364     
   20.000004284973588     
   653.13427026187753     
   20.000000077394024     
   20.000001625688533     
   20.657311672515348     
   20.265231879233223     
   20.000000042711534     
   20.000000064923771     
   1173.1267693524017     
   20.000000154157021     
   1287.1973438935900     
   1066.3508393059824     
   20.000140491466453     
   20.000109010935759     
   1476.0472937076700     
   28.432458777994668     
   325.94842930656279     
   20.010426586862845     
   20.000000099787542     
   20.000000055705609     
   20.000000239357519     
   775.06085277329805     
   20.000045536564414     
   20.000000152535939     
   20.000007451682411     
   20.000038058123842     
   20.001097975117258     
   1315.2413256993150     
   761.62290501371308     
   20.000000092811263     
   20.000000187910342     
   45.820404052597183     
   1195.3239677487607     
   20.000042005262408     
   20.000000365090195     
   1209.7591706238522     
   1285.2546717992077     
   20.001297592228326     
   20.000321860539291     
   1002.4672816170817     
   20.000000159223934     
   20.000000960894884     
   20.000000486593812     
   20.000000583940075     
   907.07083303105014     
   20.000383852485708     
   20.000000797935165     
   20.000001097575069     
   27.849611813530888     
   25.698726522992821     
   20.000000423666862     
   20.000000128947043     
   20.001898715734022     
   20.000000312461715     
   1136.3147784711082     
   20.000000694413540     
   1033.3571178535017     
   20.000000332610256     
   854.03728210304678     
   20.000000120266911     
   968.98976156231856     
   772.06552555184692     
   1028.3436137734811     
   1203.3837192855626     
   1029.8676862268933     
   20.000000289521850     
   20.000000132443468     
   20.000000257478394     
   866.99669279302361     
   832.82780010584497     
   754.92172884291779     
   727.67405074810245     
   1113.1426370287945     
   655.90219842399893     
   20.000039451105078     
   20.000000355047597     
   20.000001474356139     
   20.000001314250035     
   1230.0790135154405     
   881.46636387470926     
   886.09350030319126     
   959.14499209542703     
   622.63749142612801     
   712.84887506281791     
   20.000001412107604     
   20.000001085319102     
   20.000004655233898     
   551.97884936675916     
   823.34903710414903     
   549.89067469642680     
   20.000001786343891     
   20.000007595595573     
   20.000010351297156     
   620.92188660607189     
   463.43237380098850     
   756.32494013397366     
   20.000004071772366     
   602.31510960956075     
   642.50113420019977     
   20.000001560804762     
   20.000006233109936     
   650.69612613112929     
   20.000016347087058     
   20.000006473535077     
   528.92108015692338     
   20.000012058464808     
   20.000006038303574     
   20.000004690514825     
   20.000018700935428     
   556.28998788547824     
   448.31807081605530     
   472.07491694997492     
   20.000001850318121     
   379.16233795221996     
   400.99517013818837     
   20.000038499526436     
   20.000048226453409     
   20.000002541812819     
   20.000048298711803     
   704.59883292900156     
   20.000114751336799     
   20.000139965776274     
   20.000177467852190     
   20.000058678394272     
   292.93386354054110     
   20.000093710124236     
   20.000074847792181     
   393.71814479484192     
   20.000179470438113     
   20.000116093322273     
   20.000002970867346     
   20.000254632558519     
   20.000220999284455     
   20.000167123054865     
   20.000412290561375     
   20.000144826227178     
   20.000936445704063     
   20.001126485291735     
   20.003114926095297     
   20.002097458644030     
   20.001730857721263     
   20.002561925003139     
   20.004506335135492     
   20.013737141200092     
   20.005516207154002     
   20.004548811038049     
   20.009672087284610     
   20.006653758897862     
   20.039706756573018     
   20.016659684015778     
   20.013863642860535     
   20.028463794763191     
   20.019919828509405     
   20.021143857131559     
   20.008019915254490     
   20.029906303302969     
   20.023368255012524     
   20.016633651834901     
   20.014839263202706     
   20.108471123147304     
   20.047710216476020     
   20.040062651720049     
   20.079445737017775     
   20.056551240942113     
   20.023795811422193     
   381.19998968125674     
   20.282114225994668     
   20.129691472910064     
   20.109678658063441     
   20.209456525833406     
   20.151627537786727     
   20.066961921477823     
   20.211514266646873     
   20.164220999066440     
   20.109571335612561     
   20.150983238325992     
   20.696420064433624     
   20.334078964182286     
   20.285121746761209     
   20.525880679027438     
   20.388309037693951     
   20.178819663526181     
   20.121372254088381     
   21.634714021400537     
   20.817306993119111     
   20.703630532508335     
   21.254349685305794     
   20.942149626927517     
   20.452612012167162     
   21.171781953125432     
   20.940956643959638     
   20.658153565501035     
   20.877023102840603     
   23.652124708407481     
   21.901465060834933     
   21.651001635998416     
   22.849447511367657     
   22.170462462859643     
   21.088730618951605     
   233.01402655530859     
   266.78985788130268     
   244.07269830162519     
   20.716789927164378     
   24.758112234046131     
   127.73677610116677     
   283.57131053925940     
   138.47714686062287     
   125.00522233970469     
   142.85174242611308     
   27.778136161764049     
   266.46221008124343     
   232.00153225537380     
   285.87129088329431     
   24.212238963034398     
   23.687405689358126     
   69.208725234746979     
   226.36173723733725     
   118.01846781968490     
   65.309186600861281     
   141.66965143556419     
   22.491714469494738     
   106.40662987044323     
   231.50416635337302     
   25.445557210454677     
   26.169595250348522     
   316.79617416019136     
   193.19922437122469     
   172.98057603328013     
   120.46970913077806     
   39.358174041227088     
   101.98959895149083     
   32.589438933018634     
   31.497516114589864     
   76.488693361655862     
   40.600738195256199     
   324.77748387133602     
   28.889858896157815     
   27.848521242106077     
   240.56394309824816     
   32.612183066686789     
   231.25505481442525     
   78.189103881676417     
   150.00645018605616     
   39.368204286417473     
   166.69944760137358     
   167.33322610236655     
   162.86399136858995     
   227.28674067205137     
   29.927325611136467     
   147.29495361802552     
   91.269331599189229     
   91.220804490403481     
   289.08232800515617     
   89.589470616275591     
   321.98725372145685     
   59.014103364405386     
   65.856319186009145     
   75.525180378233557     
   204.33503342235051     
   335.04002085579191     
   43.869807697760258     
   176.95781684415300     
   266.76139701366179     
   20.000382118161362     
   68.804332174999999     
   73.502955713230776     
   312.08935878966349     
   20.001112972284204     
   20.000502640446818     
   58.440135343752502     
   31.294999728110497     
   79.934673539221464     
   127.84123673190898     
   438.40606145072616     
   315.38551467633863     
   229.01848286760958     
   260.67363048287410     
   141.53714081675386     
   90.242361878011366     
   59.447800176820685     
   41.451536819807259     
   31.247023820639907     
   25.614336528277175     
   22.704976360134442     
   21.236287975080035     
   20.540943372151098     
   20.224200251623031     
   20.088413354558927     
   20.032601287580437     
   20.011768840869639     
   20.003923983770861     
   20.001261629200393     
   20.000852521750659     
   20.000571429838786     
   20.000750278020561     
   20.000252847827454     
   20.000334412815089     
   20.000071462540753     
   20.000018991127931     
   20.000004768994945     
   20.000001139374522     
   20.000417930620589     
   20.000000862373625     
   20.000003758498206     
   20.000015476175957     
   20.000060516387393     
   20.000223113875151     
   20.000516054908310     
   20.000775518567739     
   20.000632293525179     
   20.001162442181862     
   20.000951156022520     
   20.003784985135795     
   20.011634247490214     
   20.033905564071311     
   20.093749262558578     
   20.245819668471494     
   20.611611539419858     
   21.446524628158791     
   23.255708570157775     
   26.984254868543093     
   34.312720843652833     
   48.114855706329578     
   73.157693751230497     
   85.186407087812668     
   78.494074598382994     
   99.781074701018539     
   116.92683815860021     
   191.17399398293810     
   313.76903478908048     
   511.86133733596051     
   85.707676684854448     
   196.49673646481628     
   207.94598885740189     
   141.86282509893795     
   20.000274878681797     
   100.18142520844711     
   272.81353307752829     
   56.375952162548295     
   108.79136930514365     
   42.864999751346630     
   20.000339037335554     
   48.620992735819819     
   92.963643751939429     
   245.63530377568762     
   59.493042924151922     
   340.21131474379212     
   39.981048840049922     
   65.329105399079722     
   150.24546671746765     
   108.54840328067186     
   52.431474854704078     
   102.72032396154155     
   44.417194143729454     
   45.939654295983040     
   40.905020680947914     
   56.382187833382346     
   49.699279082294680     
   121.56600082206475     
   273.57837890823629     
   163.69875732631562     
   107.17072400214887     
   44.992264309559985     
   32.466173791007407     
   55.299050873530163     
   103.42546910932006     
   67.330588816353171     
   51.066064559508490     
   63.635269929907302     
   35.943553992442283     
   87.989119536535668     
   38.282608398239482     
   38.835797171072237     
   33.152573383447539     
   36.606763607384842     
   35.294590987408547     
   140.23933193064437     
   39.178252699090926     
   142.89283831206225     
   30.001206667984182     
   34.639442811981986     
   87.887880064791773     
   32.091108502167046     
   24.708522850025911     
   30.208703095997130     
   88.969741544461570     
   79.973966346817605     
   93.121023273316695     
   29.475149285053874     
   26.041833801466087     
   175.44071875630718     
   25.075591046143639     
   206.61546488582027     
   28.165896353653864     
   27.545578703900166     
   22.165923107543566     
   25.152757522583141     
   26.395681238876357     
   197.44704543071975     
   24.787308143480537     
   25.876821853059404     
   24.786931743351492     
   25.006899373818108     
   22.359095318209643     
   24.554512130736729     
   22.791777296648956     
   23.897000871820026     
   23.541085179813571     
   23.017197893154155     
   20.939643046816943     
   22.188954707368207     
   22.726809982615773     
   22.307317688822817     
   22.082550364458946     
   21.044448920052972     
   21.234629646317277     
   21.766097381978806     
   21.592488380082511     
   21.343181103144889     
   20.394784603265389     
   20.952721906223417     
   21.204856732695792     
   21.009319078875393     
   20.904531683210855     
   20.436811204315497     
   20.526439428587491     
   20.760958854799100     
   20.680477755312552     
   20.570152044107239     
   20.155916005944157     
   20.394822968371390     
   20.507106235193227     
   20.422077229369858     
   20.374990103550250     
   20.176601944788707     
   20.211322799715688     
   20.312536479510811     