# vtk DataFile Version 2.0
 temperature
 ASCII
 DATASET UNSTRUCTURED_GRID
 POINTS         773  double
   0.0000000000000000        0.0000000000000000        0.0000000000000000     
   3.5000000000000000        0.0000000000000000        0.0000000000000000     
   3.5000000000000000        40.000000000000000        0.0000000000000000     
   0.0000000000000000        40.000000000000000        0.0000000000000000     
  0.43750000000000000        0.0000000000000000        0.0000000000000000     
  0.87500000000000000        0.0000000000000000        0.0000000000000000     
   1.3125000000000000        0.0000000000000000        0.0000000000000000     
   1.7500000000000000        0.0000000000000000        0.0000000000000000     
   2.1875000000000000        0.0000000000000000        0.0000000000000000     
   2.6250000000000000        0.0000000000000000        0.0000000000000000     
   3.0625000000000000        0.0000000000000000        0.0000000000000000     
   3.5000000000000000       0.50000000000000000        0.0000000000000000     
   3.5000000000000000        1.0000000000000000        0.0000000000000000     
   3.5000000000000000        1.5000000000000000        0.0000000000000000     
   3.5000000000000000        2.0000000000000000        0.0000000000000000     
   3.5000000000000000        2.5000000000000000        0.0000000000000000     
   3.5000000000000000        3.0000000000000000        0.0000000000000000     
   3.5000000000000000        3.5000000000000000        0.0000000000000000     
   3.5000000000000000        4.0000000000000000        0.0000000000000000     
   3.5000000000000000        4.5000000000000000        0.0000000000000000     
   3.5000000000000000        5.0000000000000000        0.0000000000000000     
   3.5000000000000000        5.5000000000000000        0.0000000000000000     
   3.5000000000000000        6.0000000000000000        0.0000000000000000     
   3.5000000000000000        6.5000000000000000        0.0000000000000000     
   3.5000000000000000        7.0000000000000000        0.0000000000000000     
   3.5000000000000000        7.5000000000000000        0.0000000000000000     
   3.5000000000000000        8.0000000000000000        0.0000000000000000     
   3.5000000000000000        8.5000000000000000        0.0000000000000000     
   3.5000000000000000        9.0000000000000000        0.0000000000000000     
   3.5000000000000000        9.5000000000000000        0.0000000000000000     
   3.5000000000000000        10.000000000000000        0.0000000000000000     
   3.5000000000000000        10.500000000000000        0.0000000000000000     
   3.5000000000000000        11.000000000000000        0.0000000000000000     
   3.5000000000000000        11.500000000000000        0.0000000000000000     
   3.5000000000000000        12.000000000000000        0.0000000000000000     
   3.5000000000000000        12.500000000000000        0.0000000000000000     
   3.5000000000000000        13.000000000000000        0.0000000000000000     
   3.5000000000000000        13.500000000000000        0.0000000000000000     
   3.5000000000000000        14.000000000000000        0.0000000000000000     
   3.5000000000000000        14.500000000000000        0.0000000000000000     
   3.5000000000000000        15.000000000000000        0.0000000000000000     
   3.5000000000000000        15.500000000000000        0.0000000000000000     
   3.5000000000000000        16.000000000000000        0.0000000000000000     
   3.5000000000000000        16.500000000000000        0.0000000000000000     
   3.5000000000000000        17.000000000000000        0.0000000000000000     
   3.5000000000000000        17.500000000000000        0.0000000000000000     
   3.5000000000000000        18.000000000000000        0.0000000000000000     
   3.5000000000000000        18.500000000000000        0.0000000000000000     
   3.5000000000000000        19.000000000000000        0.0000000000000000     
   3.5000000000000000        19.500000000000000        0.0000000000000000     
   3.5000000000000000        20.000000000000000        0.0000000000000000     
   3.5000000000000000        20.500000000000000        0.0000000000000000     
   3.5000000000000000        21.000000000000000        0.0000000000000000     
   3.5000000000000000        21.500000000000000        0.0000000000000000     
   3.5000000000000000        22.000000000000000        0.0000000000000000     
   3.5000000000000000        22.500000000000000        0.0000000000000000     
   3.5000000000000000        23.000000000000000        0.0000000000000000     
   3.5000000000000000        23.500000000000000        0.0000000000000000     
   3.5000000000000000        24.000000000000000        0.0000000000000000     
   3.5000000000000000        24.500000000000000        0.0000000000000000     
   3.5000000000000000        25.000000000000000        0.0000000000000000     
   3.5000000000000000        25.500000000000000        0.0000000000000000     
   3.5000000000000000        26.000000000000000        0.0000000000000000     
   3.5000000000000000        26.500000000000000        0.0000000000000000     
   3.5000000000000000        27.000000000000000        0.0000000000000000     
   3.5000000000000000        27.500000000000000        0.0000000000000000     
   3.5000000000000000        28.000000000000000        0.0000000000000000     
   3.5000000000000000        28.500000000000000        0.0000000000000000     
   3.5000000000000000        29.000000000000000        0.0000000000000000     
   3.5000000000000000        29.500000000000000        0.0000000000000000     
   3.5000000000000000        30.000000000000000        0.0000000000000000     
   3.5000000000000000        30.500000000000000        0.0000000000000000     
   3.5000000000000000        31.000000000000000        0.0000000000000000     
   3.5000000000000000        31.500000000000000        0.0000000000000000     
   3.5000000000000000        32.000000000000000        0.0000000000000000     
   3.5000000000000000        32.500000000000000        0.0000000000000000     
   3.5000000000000000        33.000000000000000        0.0000000000000000     
   3.5000000000000000        33.500000000000000        0.0000000000000000     
   3.5000000000000000        34.000000000000000        0.0000000000000000     
   3.5000000000000000        34.500000000000000        0.0000000000000000     
   3.5000000000000000        35.000000000000000        0.0000000000000000     
   3.5000000000000000        35.500000000000000        0.0000000000000000     
   3.5000000000000000        36.000000000000000        0.0000000000000000     
   3.5000000000000000        36.500000000000000        0.0000000000000000     
   3.5000000000000000        37.000000000000000        0.0000000000000000     
   3.5000000000000000        37.500000000000000        0.0000000000000000     
   3.5000000000000000        38.000000000000000        0.0000000000000000     
   3.5000000000000000        38.500000000000000        0.0000000000000000     
   3.5000000000000000        39.000000000000000        0.0000000000000000     
   3.5000000000000000        39.500000000000000        0.0000000000000000     
   3.0625000000000000        40.000000000000000        0.0000000000000000     
   2.6250000000000000        40.000000000000000        0.0000000000000000     
   2.1875000000000000        40.000000000000000        0.0000000000000000     
   1.7500000000000000        40.000000000000000        0.0000000000000000     
   1.3125000000000000        40.000000000000000        0.0000000000000000     
  0.87500000000000000        40.000000000000000        0.0000000000000000     
  0.43750000000000000        40.000000000000000        0.0000000000000000     
   0.0000000000000000        39.500000000000000        0.0000000000000000     
   0.0000000000000000        39.000000000000000        0.0000000000000000     
   0.0000000000000000        38.500000000000000        0.0000000000000000     
   0.0000000000000000        38.000000000000000        0.0000000000000000     
   0.0000000000000000        37.500000000000000        0.0000000000000000     
   0.0000000000000000        37.000000000000000        0.0000000000000000     
   0.0000000000000000        36.500000000000000        0.0000000000000000     
   0.0000000000000000        36.000000000000000        0.0000000000000000     
   0.0000000000000000        35.500000000000000        0.0000000000000000     
   0.0000000000000000        35.000000000000000        0.0000000000000000     
   0.0000000000000000        34.500000000000000        0.0000000000000000     
   0.0000000000000000        34.000000000000000        0.0000000000000000     
   0.0000000000000000        33.500000000000000        0.0000000000000000     
   0.0000000000000000        33.000000000000000        0.0000000000000000     
   0.0000000000000000        32.500000000000000        0.0000000000000000     
   0.0000000000000000        32.000000000000000        0.0000000000000000     
   0.0000000000000000        31.500000000000000        0.0000000000000000     
   0.0000000000000000        31.000000000000000        0.0000000000000000     
   0.0000000000000000        30.500000000000000        0.0000000000000000     
   0.0000000000000000        30.000000000000000        0.0000000000000000     
   0.0000000000000000        29.500000000000000        0.0000000000000000     
   0.0000000000000000        29.000000000000000        0.0000000000000000     
   0.0000000000000000        28.500000000000000        0.0000000000000000     
   0.0000000000000000        28.000000000000000        0.0000000000000000     
   0.0000000000000000        27.500000000000000        0.0000000000000000     
   0.0000000000000000        27.000000000000000        0.0000000000000000     
   0.0000000000000000        26.500000000000000        0.0000000000000000     
   0.0000000000000000        26.000000000000000        0.0000000000000000     
[...]
 CELL_DATA        1368
 SCALARS T double
 LOOKUP_TABLE default
   20.000492930597623     
   20.028991261782256     
   1632.8793491066651     
   21.874276935410897     
   20.000000000000000     
   20.002290572778797     
   1241.4531600167747     
   20.001712884098186     
   20.000002388142850     
   20.001172306361685     
   20.000007345638441     
   20.767533858353612     
   20.000735637018369     
   22.020227371411892     
   20.913679368945932     
   1173.5925763644898     
   1632.9910495393181     
   20.000040065243262     
   20.000028118709817     
   20.004980327825329     
   20.000018621498949     
   20.000000017426441     
   1702.8555620018983     
   20.000000061729505     
   20.000364684063154     
   20.035021703118822     
   20.000010563007592     
   20.003173056357088     
   20.000564655109866     
   20.000003307647571     
   20.006084774383151     
   20.000000000000000     
   20.021646827136461     
   20.035907224153686     
   20.042206256407884     
   20.000000000000000     
   20.000094665453510     
   20.000000402290347     
   20.000008636509161     
   20.000000271310558     
   20.000000088300023     
   20.000878794363832     
   20.000000170234099     
   21.573839846583052     
   20.000057894464273     
   272.62427803184721     
   267.53670940862145     
   20.000503576576161     
   20.000984354029654     
   619.29806410807646     
   616.52616133157358     
   20.000005102061991     
   20.000120624369846     
   20.000000000000000     
   1679.7881186067937     
   20.000000000000000     
   20.000000000000000     
   20.000000009107460     
   20.000000002995815     
   20.000000025912197     
   20.000000000000000     
   21.504303990823772     
   20.000000072597210     
   20.000000000000000     
   20.003625996080061     
   20.006414707607235     
   20.000001026349754     
   20.007228192161566     
   20.000006932807775     
   20.000014715388307     
   20.000000000000000     
   1642.9648372503432     
   20.000000000000000     
   20.000013353256140     
   20.000000597839207     
   20.000001398960894     
   20.000000000000000     
   20.000000000000000     
   20.000000000000000     
   247.77463180247062     
   20.000000040830297     
   20.000000002023249     
   114.69775679895506     
   20.000000000370726     
   55.769587880550503     
   20.000065624778411     
   20.000129536018097     
   245.08769175242628     
   20.000000005936940     
   791.26619410187163     
   20.000000054724893     
   20.000000130107050     
   23.493297972149513     
   20.000000000000000     
   736.57774210829336     
   20.000000000024851     
   20.893627554372873     
   20.000000000000000     
   20.000000000056588     
   20.000000000000000     
   114.01974780383084     
   20.000000000000000     
   123.29781805304904     
   122.31828001253223     
   20.000000114518368     
   20.000000004819093     
   20.000000000000000     
   20.000001739547912     
   20.000000000000000     
   20.000000000000000     
   20.129512751413085     
   365.46273207454141     
   20.051027608822267     
   20.000000000005503     
   20.000000000000000     
   20.000000000000000     
   62.075255287962989     
   20.008897765820294     
   61.364597665084801     
   20.000000000000220     
   20.000000000000000     
   20.000000000004956     
   20.000000001086899     
   55.514035824925912     
   20.001363824346083     
   162.43952944563065     
   20.000000686420730     
   20.000001439992538     
   20.000000000611827     
   20.000158860029963     
   20.000000000000000     
   20.000000000009212     
   372.22549853560071     
   20.000179769061035     
   20.000000000000000     
   20.000000000000000     
   20.000020434153893     
   35.366788137244072     
   1277.1372341200076     
   34.974967448116324     
   956.36271449691139     
   386.15827749598185     
   77.039423205955401     
   20.000000000014907     
   20.000000000237872     
   20.000000000000451     
   406.42768770682630     
   20.000000000091770     
   20.000000000000000     
   20.000000000000000     
   20.000000000000327     
   164.27112603696511     
   20.000000000167763     
   24.938094962319145     
   24.792870248243709     
   20.000000000000000     
   20.000000000000490     
   40.128507810035138     
   20.000000001204686     
   20.000000000000000     
   20.000000000000000     
   20.000000000000000     
   21.395387325308374     
   23.459999670320844     
   20.000000012051743     
   20.004314248932836     
   20.000000000000000     
   20.000000000000000     
   148.84803160260896     
   77.740110015122312     
   20.000000000002895     
   20.000000000000000     
   20.000000000000000     
   20.886285734071635     
   21.722575358507889     
   20.000000000000387     
   955.84089969827448     
   20.000083268775242     
   40.269285916675585     
   20.000000000000000     
   79.465589427269919     
   75.252544110928866     
   20.410966274104826     
   20.000000000000000     
   20.441865242323896     
   20.000000000000718     
   20.000000000667310     
   20.000000001687944     
   23.556553183872389     
   20.000000000000000     
   159.18997319788036     
   20.000000896479317     
   20.071548958205625     
   20.068868330608250     
   20.109383662182452     
   20.000000000000000     
   486.29283131443316     
   20.000000000001474     
   20.000000000000000     
   20.000000000000000     
   20.049966537010032     
   20.000000000000000     
   42.467221974736823     
   20.000000000102769     
   20.000000000263697     
   20.000000000002665     
   40.744184291739096     
   20.018015838060176     
   20.000000000000000     
   20.000000000000000     
   20.000000000000000     
   20.000000000000000     
   20.020159516515541     
   20.000000000000000     
   20.000000000004210     
   20.000000000000000     
   20.000000000019771     
   20.000000000144617     
   20.000001815047579     
   20.000000000000121     
   20.008704527854867     
   20.000000000000000     
   20.000000000810143     
   23.138352316224406     
   20.000000000039240     
   21.746620208669260     
   20.000000000031324     
   20.000000000000000     
   20.000000000000000     
   20.000000000000000     
   20.000000000001229     
   20.000000000000000     
   20.001329695903429     
   20.000000000000000     
   20.003281584054317     
   20.000000000000000     
   20.000000000354309     
   20.000000000000000     
   20.000175046306740     
   20.000000000548376     
   20.335101881468937     
   20.414214150727620     
   205.14940362963341     
   20.000431708071343     
   23.200210100305675     
   27.499278037816907     
   1383.4106370063012     
   26.889501128744961     
   20.000019940460444     
   20.000000000000000     
   20.000000000000000     
   20.000000005565280     
   20.000000000001020     
   20.000463352739462     
   1457.0279393737992     
   20.000000000000000     
   20.000000000000000     
   20.000000000000000     
   20.000000008405241     
   20.000000000001542     
   20.000000000000000     
   620.80590125791468     
   485.82188340810393     
   20.000000076246387     
   20.000000002318128     
   20.000000000035584     
   20.000056736069372     
   20.000000000000000     
   20.000000112575464     
   1404.4490866527487     
   20.111683271548603     
   20.000006050111001     
   20.000000000000647     
   20.000000000002554     
   20.000000000000938     
   20.000000000000000     
   20.000000912850407     
   20.000000000000000     
   1295.1483383968584     
   1166.4316803631471     
   20.000000000000000     
   1175.0949517618158     
   20.000000000000000     
   20.000001317462424     
   1298.6897552367136     
   20.000000001537781     
   20.330247118528249     
   779.38485925630039     
   1318.1123422247026     
   20.000000000000000     
   20.020742813164379     
   20.000000000000000     
   20.000000000000000     
   20.000000000000824     
   20.000000000002032     
   20.000000000000000     
   20.000000000000000     
   20.000000000000000     
   20.000000000000000     
   824.46422298895732     
   20.003375490001702     
   20.000000000000000     
   537.43516793496485     
   20.000000000000000     
   20.000000000000000     
   20.000477067031895     
   20.000058434490359     
   20.000000000000000     
   20.000000000000000     
   1086.7167795898879     
   20.000000000000000     
   1229.2444022904940     
   973.03211634832167     
   20.000000000001819     
   20.000000000001073     
   1404.8993010447457     
   20.290494710482580     
   212.26859556958999     
   20.000000048528047     
   20.000000000000000     
   20.000000000000000     
   20.000000000000000     
   669.88346254249518     
   20.000000000000242     
   20.000000000000000     
   20.000000000000000     
   20.000000000000139     
   20.000000000137685     
   1234.9736717949511     
   714.07787421888770     
   20.000000000000000     
   20.000000000000000     
   22.454125805560540     
   1088.2439703889424     
   20.000000000000107     
   20.000000000000000     
   1140.0142321913338     
   1188.9986727916430     
   20.000000000209944     
   20.000000000007354     
   897.83859463728641     
   20.000000000000000     
   20.000000000000000     
   20.000000000000000     
   20.000000000000000     
   797.53932930057761     
   20.000000000011536     
   20.000000000000000     
   20.000000000000000     
   20.168017004450142     
   20.111080859829073     
   20.000000000000000     
   20.000000000000000     
   20.000000000936343     
   20.000000000000000     
   1035.0279864674492     
   20.000000000000000     
   924.39209832565416     
   20.000000000000000     
   734.52909124191865     
   20.000000000000000     
   848.91420265741738     
   649.73334692860374     
   940.68262112312016     
   1113.4095358129716     
   902.92038850702954     
   20.000000000000000     
   20.000000000000000     
   20.000000000000000     
   764.16003819825414     
   699.10897209325174     
   618.35537634673869     
   597.03445289840374     
   995.35363861182054     
   524.68711954167361     
   20.000000000000277     
   20.000000000000000     
   20.000000000000000     
   20.000000000000000     
   1176.4692615321487     
   738.72619399052132     
   761.01743624054734     
   823.70610718962848     
   499.11402547701874     
   569.74658894680783     
   20.000000000000000     
   20.000000000000000     
   20.000000000000000     
   389.37490669148491     
   674.60527021516884     
   388.89603280604763     
   20.000000000000000     
   20.000000000000000     
   20.000000000000000     
   483.26977276117782     
   338.67067706190085     
   602.77505366443074     
   20.000000000000000     
   440.01781157139823     
   498.78861635678942     
   20.000000000000000     
   20.000000000000000     
   490.74066418642315     
   20.000000000000000     
   20.000000000000000     
   387.56211432349551     
   20.000000000000000     
   20.000000000000000     
   20.000000000000000     
   20.000000000000000     
   420.04453017061212     
   306.19903108634850     
   334.33897988232457     
   20.000000000000000     
   240.04880325973045     
   264.27998169603001     
   20.000000000000000     
   20.000000000000000     
   20.000000000000000     
   20.000000000000121     
   546.94967235413696     
   20.000000000000590     
   20.000000000001005     
   20.000000000001702     
   20.000000000000231     
   195.58187373077718     
   20.000000000000338     
   20.000000000000103     
   249.08641672247597     
   20.000000000001712     
   20.000000000000657     
   20.000000000000000     
   20.000000000007997     
   20.000000000006931     
   20.000000000003968     
   20.000000000012673     
   20.000000000000981     
   20.000000000089653     
   20.000000000141338     
   20.000000001528775     
   20.000000000598675     
   20.000000000377849     
   20.000000000957392     
   20.000000003732136     
   20.000000052241770     
   20.000000005898205     
   20.000000003755758     
   20.000000022407864     
   20.000000009243916     
   20.000000639250381     
   20.000000080688242     
   20.000000052557990     
   20.000000287048014     
   20.000000123671185     
   20.000000341424329     
   20.000000014322602     
   20.000000778875183     
   20.000000485539601     
   20.000000215092072     
   20.000000147882805     
   20.000006772571343     
   20.000000964638936     
   20.000000642882188     
   20.000003210998269     
   20.000001445561370     
   20.000000187382820     
   231.95875901425890     
   20.000063053541876     
   20.000010071571452     
   20.000006844991763     
   20.000031007873432     
   20.000014586044134     
   20.000002141542172     
   20.000073454846646     
   20.000045930814672     
   20.000016098065881     
   20.000033917700438     
   20.000510808193393     
   20.000091485601409     
   20.000063669990816     
   20.000263090164015     
   20.000130270638419     
   20.000021351710977     
   20.000022586689418     
   20.003604939916869     
   20.000723809120640     
   20.000515583980985     
   20.001941389409069     
   20.001007540410562     
   20.000185115485500     
   20.003737735302554     
   20.002518201765607     
   20.001011173058110     
   20.001945877849398     
   20.022145900607036     
   20.004986019798046     
   20.003635823092676     
   20.012497903483002     
   20.006759011600693     
   20.001398243255004     
   121.37826504481005     
   137.13823897218404     
   132.97591552250367     
   20.001353300941549     
   20.039400791547408     
   52.282658475441281     
   152.31798333382059     
   52.847976178836277     
   46.784760961593093     
   59.584288309283508     
   20.118454917179019     
   158.16579750887624     
   109.38363981198771     
   168.12604787248935     
   20.029922772668190     
   20.022326920574923     
   27.430944363333673     
   107.03118908026606     
   43.164014086329779     
   26.881562345050007     
   53.691480896842819     
   20.009200065106267     
   38.662376390902502     
   131.78275052103157     
   20.052974229551378     
   20.070103640527091     
   177.89367656973670     
   84.460487649337352     
   72.790470921408030     
   45.657677622540255     
   21.091541922368606     
   41.063311516556830     
   20.333215813202020     
   20.301367715617701     
   29.359195598824563     
   21.298885744241456     
   199.07078341039622     
   20.155863436315531     
   20.119205851697373     
   118.68051620947543     
   20.377829210987500     
   114.63207232998948     
   28.728358376494409     
   65.109218818151376     
   21.230887988637264     
   70.679694099501134     
   74.615664318518441     
   65.929510066261855     
   124.15253567508645     
   20.199190466699150     
   58.020775575606081     
   31.817256112749121     
   32.902297820127025     
   162.68912565595446     
   36.298114681821268     
   188.51624714775883     
   25.359383491235196     
   26.247320614290516     
   28.340469040008308     
   92.812516402703352     
   195.55265425713989     
   21.522990845806447     
   78.185771935323615     
   186.95394356269978     
   20.000000000028361     
   26.650157518774122     
   27.260275597661096     
   224.92245756685219     
   20.000000000322480     
   20.000000000048836     
   23.844057312532499     
   20.262566391728740     
   29.921175274619895     
   49.881557400704871     
   365.46876682323102     
   235.48023333789226     
   149.77723715724915     
   174.61020955832589     
   75.227720662148329     
   41.322320968341437     
   27.292524955547204     
   22.197156225871780     
   20.577992013302481     
   20.132340356799592     
   20.026668154237907     
   20.004670064987298     
   20.000710619432184     
   20.000093785007746     
   20.000010827193385     
   20.000001066830400     
   20.000000095266017     
   20.000000007223434     
   20.000000000482871     
   20.000000000190390     
   20.000000000074493     
   20.000000000127248     
   20.000000000010704     
   20.000000000018517     
   20.000000000000643     
   20.000000000000000     
   20.000000000000000     
   20.000000000000000     
   20.000000000012843     
   20.000000000000000     
   20.000000000000000     
   20.000000000000000     
   20.000000000000000     
   20.000000000002871     
   20.000000000021188     
   20.000000000056062     
   20.000000000034593     
   20.000000000146901     
   20.000000000091596     
   20.000000002418044     
   20.000000034565176     
   20.000000432009006     
   20.000004717110070     
   20.000044882698536     
   20.000371609358929     
   20.002679084961027     
   20.016815810160114     
   20.091864322482810     
   20.437631882446663     
   21.819236977159854     
   26.629647497663505     
   29.907149546279829     
   28.037147465677318     
   34.641219326611278     
   41.190229323087941     
   79.621240227049825     
   168.36573660453479     
   348.95750223627510     
   30.837378595918413     
   89.848266933020099     
   99.268565438397005     
   56.444828433106501     
   20.000000000004732     
   35.864669283527910     
   147.02252746648909     
   23.629477076845831     
   40.898679049573616     
   21.293434152983941     
   20.000000000007773     
   22.060986462825056     
   34.466227402425623     
   127.33666777787245     
   24.387908547120318     
   207.39190292798463     
   21.000174828877999     
   25.594968392738423     
   61.929540879144113     
   42.618786364605285     
   22.949755096758633     
   37.883285434462280     
   21.758597302385745     
   21.863724418870262     
   21.190028143591928     
   23.267023762666071     
   22.384528284176685     
   48.131573003950294     
   154.74845702516117     
   77.097710540351187     
   37.390188914675896     
   21.595165902710850     
   20.428621385416509     
   23.165698534979473     
   39.671470515098193     
   25.813694409846843     
   22.493154131522200     
   24.848837266513108     
   20.621417205762786     
   32.333288639601975     
   20.809969661041016     
   20.834920397763117     
   20.449330313802601     
   20.736165351788330     
   20.598369197647624     
   61.565456512567017     
   20.962460609063001     
   65.287263670481337     
   20.228624103756900     
   20.505689196238393     
   34.659641043664081     
   20.363679168421008     
   20.052966918411713     
   20.262693899569872     
   33.703635886150934     
   30.894359986573242     
   35.872879322857152     
   20.217243738684104     
   20.090504401105694     
   81.502219957473727     
   20.064995818520213     
   103.63628527528766     
   20.161871035465715     
   20.131469794506248     
   20.009398980177600     
   20.077441779773096     
   20.095084302029605     
   94.961127825603043     
   20.062716281637439     
   20.076184870523356     
   20.045918404310104     
   20.055628250620849     
   20.011905718999063     
   20.043676984806119     
   20.016576234779325     
   20.031911074374406     
   20.024898112065298     
   20.018064557597615     
   20.001438396650670     
   20.007978475531345     
   20.013835633876031     
   20.009899378698801     
   20.007594798114155     
   20.001910764719042     
   20.002670510753426     
   20.005423149181514     
   20.004135049583265     
   20.002923754388853     
   20.000194843057383     
   20.001206693645919     
   20.002190322885962     
   20.001525647321571     
   20.001145893608996     
   20.000258328325671     
   20.000377414819038     
   20.000800077037745     
   20.000595415749238     
   20.000412629594450     
   20.000022743607563     
   20.000158977670885     
   20.000301682236792     
   20.000206188858140     
   20.000151125470186     
   20.000031932987298     
   20.000046177515706     
   20.000103000239672     