# vtk DataFile Version 2.0
 temperature
 ASCII
 DATASET UNSTRUCTURED_GRID
 POINTS         773  double
   0.0000000000000000        0.0000000000000000        0.0000000000000000     
   3.5000000000000000        0.0000000000000000        0.0000000000000000     
   3.5000000000000000        40.000000000000000        0.0000000000000000     
   0.0000000000000000        40.000000000000000        0.0000000000000000     
  0.43750000000000000        0.0000000000000000        0.0000000000000000     
  0.87500000000000000        0.0000000000000000        0.0000000000000000     
   1.3125000000000000        0.0000000000000000        0.0000000000000000     
   1.7500000000000000        0.0000000000000000        0.0000000000000000     
   2.1875000000000000        0.0000000000000000        0.0000000000000000     
   2.6250000000000000        0.0000000000000000        0.0000000000000000     
   3.0625000000000000        0.0000000000000000        0.0000000000000000     
   3.5000000000000000       0.50000000000000000        0.0000000000000000     
   3.5000000000000000        1.0000000000000000        0.0000000000000000     
   3.5000000000000000        1.5000000000000000        0.0000000000000000     
   3.5000000000000000        2.0000000000000000        0.0000000000000000     
   3.5000000000000000        2.5000000000000000        0.0000000000000000     
   3.5000000000000000        3.0000000000000000        0.0000000000000000     
   3.5000000000000000        3.5000000000000000        0.0000000000000000     
   3.5000000000000000        4.0000000000000000        0.0000000000000000     
   3.5000000000000000        4.5000000000000000        0.0000000000000000     
   3.5000000000000000        5.0000000000000000        0.0000000000000000     
   3.5000000000000000        5.5000000000000000        0.0000000000000000     
   3.5000000000000000        6.0000000000000000        0.0000000000000000     
   3.5000000000000000        6.5000000000000000        0.0000000000000000     
   3.5000000000000000        7.0000000000000000        0.0000000000000000     
   3.5000000000000000        7.5000000000000000        0.0000000000000000     
   3.5000000000000000        8.0000000000000000        0.0000000000000000     
   3.5000000000000000        8.5000000000000000        0.0000000000000000     
   3.5000000000000000        9.0000000000000000        0.0000000000000000     
   3.5000000000000000        9.5000000000000000        0.0000000000000000     
   3.5000000000000000        10.000000000000000        0.0000000000000000     
   3.5000000000000000        10.500000000000000        0.0000000000000000     
   3.5000000000000000        11.000000000000000        0.0000000000000000     
   3.5000000000000000        11.500000000000000        0.0000000000000000     
   3.5000000000000000        12.000000000000000        0.0000000000000000     
   3.5000000000000000        12.500000000000000        0.0000000000000000     
   3.5000000000000000        13.000000000000000        0.0000000000000000     
   3.5000000000000000        13.500000000000000        0.0000000000000000     
   3.5000000000000000        14.000000000000000        0.0000000000000000     
   3.5000000000000000        14.500000000000000        0.0000000000000000     
   3.5000000000000000        15.000000000000000        0.0000000000000000     
   3.5000000000000000        15.500000000000000        0.0000000000000000     
   3.5000000000000000        16.000000000000000        0.0000000000000000     
   3.5000000000000000        16.500000000000000        0.0000000000000000     
   3.5000000000000000        17.000000000000000        0.0000000000000000     
   3.5000000000000000        17.500000000000000        0.0000000000000000     
   3.5000000000000000        18.000000000000000        0.0000000000000000     
   3.5000000000000000        18.500000000000000        0.0000000000000000     
   3.5000000000000000        19.000000000000000        0.0000000000000000     
   3.5000000000000000        19.500000000000000        0.0000000000000000     
   3.5000000000000000        20.000000000000000        0.0000000000000000     
   3.5000000000000000        20.500000000000000        0.0000000000000000     
   3.5000000000000000        21.000000000000000        0.0000000000000000     
   3.5000000000000000        21.500000000000000        0.0000000000000000     
   3.5000000000000000        22.000000000000000        0.0000000000000000     
   3.5000000000000000        22.500000000000000        0.0000000000000000     
   3.5000000000000000        23.000000000000000        0.0000000000000000     
   3.5000000000000000        23.500000000000000        0.0000000000000000     
   3.5000000000000000        24.000000000000000        0.0000000000000000     
   3.5000000000000000        24.500000000000000        0.0000000000000000     
   3.5000000000000000        25.000000000000000        0.0000000000000000     
   3.5000000000000000        25.500000000000000        0.0000000000000000     
   3.5000000000000000        26.000000000000000        0.0000000000000000     
   3.5000000000000000        26.500000000000000        0.0000000000000000     
   3.5000000000000000        27.000000000000000        0.0000000000000000     
   3.5000000000000000        27.500000000000000        0.0000000000000000     
   3.5000000000000000        28.000000000000000        0.0000000000000000     
   3.5000000000000000        28.500000000000000        0.0000000000000000     
   3.5000000000000000        29.000000000000000        0.0000000000000000     
   3.5000000000000000        29.500000000000000        0.0000000000000000     
   3.5000000000000000        30.000000000000000        0.0000000000000000     
   3.5000000000000000        30.500000000000000        0.0000000000000000     
   3.5000000000000000        31.000000000000000        0.0000000000000000     
   3.5000000000000000        31.500000000000000        0.0000000000000000     
   3.5000000000000000        32.000000000000000        0.0000000000000000     
   3.5000000000000000        32.500000000000000        0.0000000000000000     
   3.5000000000000000        33.000000000000000        0.0000000000000000     
   3.5000000000000000        33.500000000000000        0.0000000000000000     
   3.5000000000000000        34.000000000000000        0.0000000000000000     
   3.5000000000000000        34.500000000000000        0.0000000000000000     
   3.5000000000000000        35.000000000000000        0.0000000000000000     
   3.5000000000000000        35.500000000000000        0.0000000000000000     
   3.5000000000000000        36.000000000000000        0.0000000000000000     
   3.5000000000000000        36.500000000000000        0.0000000000000000     
   3.5000000000000000        37.000000000000000        0.0000000000000000     
   3.5000000000000000        37.500000000000000        0.0000000000000000     
   3.5000000000000000        38.000000000000000        0.0000000000000000     
   3.5000000000000000        38.500000000000000        0.0000000000000000     
   3.5000000000000000        39.000000000000000        0.0000000000000000     
   3.5000000000000000        39.500000000000000        0.0000000000000000     
   3.0625000000000000        40.000000000000000        0.0000000000000000     
   2.6250000000000000        40.000000000000000        0.0000000000000000     
   2.1875000000000000        40.000000000000000        0.0000000000000000     
   1.7500000000000000        40.000000000000000        0.0000000000000000     
   1.3125000000000000        40.000000000000000        0.0000000000000000     
  0.87500000000000000        40.000000000000000        0.0000000000000000     
  0.43750000000000000        40.000000000000000        0.0000000000000000     
   0.0000000000000000        39.500000000000000        0.0000000000000000     
   0.0000000000000000        39.000000000000000        0.0000000000000000     
   0.0000000000000000        38.500000000000000        0.0000000000000000     
   0.0000000000000000        38.000000000000000        0.0000000000000000     
   0.0000000000000000        37.500000000000000        0.0000000000000000     
   0.0000000000000000        37.000000000000000        0.0000000000000000     
   0.0000000000000000        36.500000000000000        0.0000000000000000     
   0.0000000000000000        36.000000000000000        0.0000000000000000     
   0.0000000000000000        35.500000000000000        0.0000000000000000     
   0.0000000000000000        35.000000000000000        0.0000000000000000     
   0.0000000000000000        34.500000000000000        0.0000000000000000     
   0.0000000000000000        34.000000000000000        0.0000000000000000     
   0.0000000000000000        33.500000000000000        0.0000000000000000     
   0.0000000000000000        33.000000000000000        0.0000000000000000     
   0.0000000000000000        32.500000000000000        0.0000000000000000     
   0.0000000000000000        32.000000000000000        0.0000000000000000     
   0.0000000000000000        31.500000000000000        0.0000000000000000     
   0.0000000000000000        31.000000000000000        0.0000000000000000     
   0.0000000000000000        30.500000000000000        0.0000000000000000     
   0.0000000000000000        30.000000000000000        0.0000000000000000     
   0.0000000000000000        29.500000000000000        0.0000000000000000     
   0.0000000000000000        29.000000000000000        0.0000000000000000     
   0.0000000000000000        28.500000000000000        0.0000000000000000     
   0.0000000000000000        28.000000000000000        0.0000000000000000     
   0.0000000000000000        27.500000000000000        0.0000000000000000     
   0.0000000000000000        27.000000000000000        0.0000000000000000     
   0.0000000000000000        26.500000000000000        0.0000000000000000     
   0.0000000000000000        26.000000000000000        0.0000000000000000     
[...]
 CELL_DATA        1368
 SCALARS T double
 LOOKUP_TABLE default
   20.000000022832232     
   20.000022157829264     
   1561.0730761751356     
   20.042868862535620     
   20.000000000000000     
   20.000000301503270     
   1179.0998386314529     
   20.000000173908205     
   20.000000000002142     
   20.000000093836313     
   20.000000000014627     
   20.007763513726008     
   20.000000035003186     
   20.045309131440341     
   20.010686831610958     
   1110.1509790097600     
   1559.5084880892734     
   20.000000000251433     
   20.000000000130001     
   20.000001001378468     
   20.000000000066095     
   20.000000000000000     
   1645.9528446365259     
   20.000000000000000     
   20.000000014010137     
   20.000034946865327     
   20.000000000020940     
   20.000000516547445     
   20.000000026207282     
   20.000000000003659     
   20.000001615228719     
   20.000000000000000     
   20.000013551355014     
   20.000033313967087     
   20.000049984874028     
   20.000000000000000     
   20.000000000965937     
   20.000000000000004     
   20.000000000017412     
   20.000000000000000     
   20.000000000000000     
   20.000000054020436     
   20.000000000000000     
   20.027044872264650     
   20.000000000462727     
   128.35395861100844     
   125.96013268632791     
   20.000000018587393     
   20.000000060311152     
   506.06128090703004     
   494.20424363998131     
   20.000000000008111     
   20.000000001674138     
   20.000000000000000     
   1631.6497015538030     
   20.000000000000000     
   20.000000000000000     
   20.000000000000000     
   20.000000000000000     
   20.000000000000000     
   20.000000000000000     
   20.026567777558945     
   20.000000000000000     
   20.000000000000000     
   20.000000590989419     
   20.000001611808472     
   20.000000000000330     
   20.000002254019211     
   20.000000000010385     
   20.000000000038671     
   20.000000000000000     
   1586.4380019001055     
   20.000000000000000     
   20.000000000035424     
   20.000000000000096     
   20.000000000000657     
   20.000000000000000     
   20.000000000000000     
   20.000000000000000     
   110.98232444985464     
   20.000000000000000     
   20.000000000000000     
   41.989842196281259     
   20.000000000000000     
   24.313349707532705     
   20.000000000524583     
   20.000000001727020     
   109.65405852682535     
   20.000000000000000     
   684.46709930069426     
   20.000000000000000     
   20.000000000000000     
   20.078672026722948     
   20.000000000000000     
   632.69517053847960     
   20.000000000000000     
   20.007268051455792     
   20.000000000000000     
   20.000000000000000     
   20.000000000000000     
   41.845066440192198     
   20.000000000000000     
   55.897007539454215     
   54.093874217699337     
   20.000000000000000     
   20.000000000000000     
   20.000000000000000     
   20.000000000001222     
   20.000000000000000     
   20.000000000000000     
   20.000356158457606     
   201.84170973222885     
   20.000048336112741     
   20.000000000000000     
   20.000000000000000     
   20.000000000000000     
   28.285355841986238     
   20.000002238154529     
   27.740158519545350     
   20.000000000000000     
   20.000000000000000     
   20.000000000000000     
   20.000000000000000     
   24.286463176897783     
   20.000000082699351     
   63.802071533665384     
   20.000000000000231     
   20.000000000000625     
   20.000000000000000     
   20.000000002806939     
   20.000000000000000     
   20.000000000000000     
   204.88258499244188     
   20.000000002362643     
   20.000000000000000     
   20.000000000000000     
   20.000000000052694     
   21.524779385514822     
   1205.2565589524957     
   21.390857620571552     
   872.89018613511223     
   265.26095927367089     
   29.690800023398118     
   20.000000000000000     
   20.000000000000000     
   20.000000000000000     
   281.31376687737071     
   20.000000000000000     
   20.000000000000000     
   20.000000000000000     
   20.000000000000000     
   64.276724998002337     
   20.000000000000000     
   20.218800094048859     
   20.198779733120624     
   20.000000000000000     
   20.000000000000000     
   21.662423823316360     
   20.000000000000000     
   20.000000000000000     
   20.000000000000000     
   20.000000000000000     
   20.027834188579625     
   20.077930490929923     
   20.000000000000000     
   20.000000924092806     
   20.000000000000000     
   20.000000000000000     
   70.802286673231123     
   29.781294881034885     
   20.000000000000000     
   20.000000000000000     
   20.000000000000000     
   20.007216048926164     
   20.023584269397215     
   20.000000000000000     
   864.43331217219270     
   20.000000000908614     
   21.663331778908255     
   20.000000000000000     
   34.197945156514891     
   32.917087666966808     
   20.001919110286085     
   20.000000000000000     
   20.002908408630024     
   20.000000000000000     
   20.000000000000000     
   20.000000000000000     
   20.101781060713694     
   20.000000000000000     
   75.896960684742709     
   20.000000000000302     
   20.000135182264167     
   20.000123642198339     
   20.000195958457482     
   20.000000000000000     
   359.42454031651340     
   20.000000000000000     
   20.000000000000000     
   20.000000000000000     
   20.000047482181916     
   20.000000000000000     
   22.793491974359640     
   20.000000000000000     
   20.000000000000000     
   20.000000000000000     
   22.513684831673931     
   20.000010616297118     
   20.000000000000000     
   20.000000000000000     
   20.000000000000000     
   20.000000000000000     
   20.000010036606451     
   20.000000000000000     
   20.000000000000000     
   20.000000000000000     
   20.000000000000000     
   20.000000000000000     
   20.000000000001098     
   20.000000000000000     
   20.000002194863654     
   20.000000000000000     
   20.000000000000000     
   20.082035135730209     
   20.000000000000000     
   20.023846365840164     
   20.000000000000000     
   20.000000000000000     
   20.000000000000000     
   20.000000000000000     
   20.000000000000000     
   20.000000000000000     
   20.000000080552269     
   20.000000000000000     
   20.000000413045719     
   20.000000000000000     
   20.000000000000000     
   20.000000000000000     
   20.000000002297249     
   20.000000000000000     
   20.001804243754947     
   20.001918398735260     
   99.430368607472658     
   20.000000015363593     
   20.096532089249880     
   20.430104976808224     
   1299.4558974470410     
   20.383509179126264     
   20.000000000051607     
   20.000000000000000     
   20.000000000000000     
   20.000000000000000     
   20.000000000000000     
   20.000000013319269     
   1360.0405373716960     
   20.000000000000000     
   20.000000000000000     
   20.000000000000000     
   20.000000000000000     
   20.000000000000000     
   20.000000000000000     
   458.18651211545796     
   367.51692109142766     
   20.000000000000000     
   20.000000000000000     
   20.000000000000000     
   20.000000000337270     
   20.000000000000000     
   20.000000000000000     
   1313.7459877943008     
   20.000198374388656     
   20.000000000008875     
   20.000000000000000     
   20.000000000000000     
   20.000000000000000     
   20.000000000000000     
   20.000000000000163     
   20.000000000000000     
   1156.3033682452715     
   1128.9927487197094     
   20.000000000000000     
   1052.1484820951482     
   20.000000000000000     
   20.000000000000455     
   1188.0311115934280     
   20.000000000000000     
   20.002108155791241     
   647.62841384398553     
   1202.0641708120779     
   20.000000000000000     
   20.000010269323585     
   20.000000000000000     
   20.000000000000000     
   20.000000000000000     
   20.000000000000000     
   20.000000000000000     
   20.000000000000000     
   20.000000000000000     
   20.000000000000000     
   681.19094950368492     
   20.000000421513516     
   20.000000000000000     
   380.61626714020792     
   20.000000000000000     
   20.000000000000000     
   20.000000013590590     
   20.000000000344137     
   20.000000000000000     
   20.000000000000000     
   946.43673837752158     
   20.000000000000000     
   1131.5214455569210     
   824.87742851621965     
   20.000000000000000     
   20.000000000000000     
   1284.7321135320944     
   20.001671969247504     
   105.73272707997866     
   20.000000000000000     
   20.000000000000000     
   20.000000000000000     
   20.000000000000000     
   516.22507240880157     
   20.000000000000000     
   20.000000000000000     
   20.000000000000000     
   20.000000000000000     
   20.000000000000000     
   1101.9797117805656     
   636.29340712535213     
   20.000000000000000     
   20.000000000000000     
   20.060422634274357     
   917.70663917867807     
   20.000000000000000     
   20.000000000000000     
   1024.3778227164601     
   1032.2356519819971     
   20.000000000000000     
   20.000000000000000     
   735.99827018255974     
   20.000000000000000     
   20.000000000000000     
   20.000000000000000     
   20.000000000000000     
   632.84053700581012     
   20.000000000000000     
   20.000000000000000     
   20.000000000000000     
   20.000491407632104     
   20.000285542503828     
   20.000000000000000     
   20.000000000000000     
   20.000000000000000     
   20.000000000000000     
   874.07491617918049     
   20.000000000000000     
   755.87933631204544     
   20.000000000000000     
   560.46982059003619     
   20.000000000000000     
   668.63363391153212     
   477.52206648495945     
   801.26467742691818     
   967.38580600743103     
   711.46702158887069     
   20.000000000000000     
   20.000000000000000     
   20.000000000000000     
   609.27060117619772     
   510.83010658410967     
   433.27479829839132     
   419.88517698718800     
   812.51857955658670     
   353.69023105381842     
   20.000000000000000     
   20.000000000000000     
   20.000000000000000     
   20.000000000000000     
   1085.9941545296297     
   537.53435911266399     
   578.88264241604577     
   625.61745952748015     
   337.99774289777235     
   382.81538374636295     
   20.000000000000000     
   20.000000000000000     
   20.000000000000000     
   213.13107370120818     
   471.96267269362261     
   213.81520091289988     
   20.000000000000000     
   20.000000000000000     
   20.000000000000000     
   311.08480055917755     
   197.76853247574778     
   402.25952184480946     
   20.000000000000000     
   254.41984966768220     
   319.39504008547783     
   20.000000000000000     
   20.000000000000000     
   298.73722471097852     
   20.000000000000000     
   20.000000000000000     
   226.34220218515017     
   20.000000000000000     
   20.000000000000000     
   20.000000000000000     
   20.000000000000000     
   257.53665487986291     
   160.75093734235551     
   185.50462703250165     
   20.000000000000000     
   113.60221180541868     
   132.18597641013562     
   20.000000000000000     
   20.000000000000000     
   20.000000000000000     
   20.000000000000000     
   349.12733413630150     
   20.000000000000000     
   20.000000000000000     
   20.000000000000000     
   20.000000000000000     
   101.46679052159894     
   20.000000000000000     
   20.000000000000000     
   117.42258744911925     
   20.000000000000000     
   20.000000000000000     
   20.000000000000000     
   20.000000000000000     
   20.000000000000000     
   20.000000000000000     
   20.000000000000000     
   20.000000000000000     
   20.000000000000000     
   20.000000000000000     
   20.000000000000000     
   20.000000000000000     
   20.000000000000000     
   20.000000000000000     
   20.000000000000000     
   20.000000000000000     
   20.000000000000000     
   20.000000000000000     
   20.000000000000000     
   20.000000000000000     
   20.000000000000153     
   20.000000000000000     
   20.000000000000000     
   20.000000000000000     
   20.000000000000000     
   20.000000000000000     
   20.000000000000000     
   20.000000000000281     
   20.000000000000114     
   20.000000000000000     
   20.000000000000000     
   20.000000000007557     
   20.000000000000270     
   20.000000000000167     
   20.000000000002064     
   20.000000000000540     
   20.000000000000000     
   103.70310339712444     
   20.000000000373845     
   20.000000000014925     
   20.000000000007667     
   20.000000000106919     
   20.000000000028635     
   20.000000000001030     
   20.000000000810566     
   20.000000000384187     
   20.000000000057526     
   20.000000000211593     
   20.000000014604833     
   20.000000000706621     
   20.000000000377106     
   20.000000004520274     
   20.000000001317467     
   20.000000000055525     
   20.000000000110287     
   20.000000452050113     
   20.000000026556542     
   20.000000014729242     
   20.000000150897808     
   20.000000047639698     
   20.000000002433662     
   20.000000803172362     
   20.000000428308827     
   20.000000081201925     
   20.000000255935184     
   20.000011022314556     
   20.000000788746998     
   20.000000455216522     
   20.000003986637029     
   20.000001352282240     
   20.000000084528438     
   48.601411644324955     
   52.742146939811171     
   55.004136490664294     
   20.000000143563302     
   20.000030047093890     
   24.404943281197795     
   60.541159255884274     
   23.950336068026139     
   22.837331821568107     
   26.034451792360045     
   20.000210828706148     
   70.969618286328284     
   40.656668672415933     
   74.025710853223217     
   20.000018469143750     
   20.000011091281895     
   20.359683256906699     
   40.148097722996134     
   22.181472484853238     
   20.336452376501686     
   24.039863956356072     
   20.000002320207727     
   21.535878363256970     
   57.473125454106352     
   20.000050444534338     
   20.000082790563717     
   73.108758104057443     
   32.243481682214188     
   28.918758052810414     
   22.728250063123784     
   20.012529350091960     
   22.271867123697842     
   20.001286096021406     
   20.001155816554544     
   20.519518834791590     
   20.017586424610894     
   91.197093945182502     
   20.000336532750147     
   20.000211117466481     
   45.115899098708553     
   20.001756273591180     
   44.174554951745613     
   20.415546610579312     
   27.724101106825501     
   20.016916304215723     
   28.590575722722512     
   30.361860399788331     
   26.938889616494073     
   52.131497885931246     
   20.000520815538685     
   25.131843633407478     
   20.649351901562795     
   20.814440533334512     
   67.885286865046950     
   21.527943716884739     
   81.421894523462782     
   20.226045112579836     
   20.258926545734589     
   20.398852032223001     
   35.203191694368854     
   83.752508311451976     
   20.020845874809655     
   31.023877134740161     
   104.42165506850149     
   20.000000000000000     
   20.275552997886280     
   20.297606523864086     
   130.08949819111598     
   20.000000000000000     
   20.000000000000000     
   20.100636937009082     
   20.000842903516627     
   20.549059365763686     
   23.604194332519388     
   265.61712379440547     
   143.72530436448915     
   76.813193236497213     
   91.619798314325493     
   34.559685157745342     
   22.987425317349427     
   20.480972528557398     
   20.060642574520273     
   20.005874378870928     
   20.000446939189811     
   20.000026994937048     
   20.000001274282084     
   20.000000046430717     
   20.000000001342951     
   20.000000000030525     
   20.000000000000593     
   20.000000000000000     
   20.000000000000000     
   20.000000000000000     
   20.000000000000000     
   20.000000000000000     
   20.000000000000000     
   20.000000000000000     
   20.000000000000000     
   20.000000000000000     
   20.000000000000000     
   20.000000000000000     
   20.000000000000000     
   20.000000000000000     
   20.000000000000000     
   20.000000000000000     
   20.000000000000000     
   20.000000000000000     
   20.000000000000000     
   20.000000000000000     
   20.000000000000000     
   20.000000000000000     
   20.000000000000000     
   20.000000000000000     
   20.000000000000000     
   20.000000000000000     
   20.000000000000060     
   20.000000000004000     
   20.000000000203954     
   20.000000008269179     
   20.000000265384337     
   20.000006714993287     
   20.000133044456049     
   20.002069834184489     
   20.025125773860662     
   20.238418855237533     
   20.477815560156177     
   20.333926603377588     
   20.935967456388081     
   21.765315030148813     
   30.166807912932722     
   65.719435904306948     
   181.33898520843314     
   20.593777717650639     
   34.656543003476884     
   38.417179124109836     
   24.939273564480391     
   20.000000000000000     
   21.141825281131478     
   59.027560340139466     
   20.094975726284122     
   21.964687498554124     
   20.014815192729206     
   20.000000000000000     
   20.033428493839310     
   21.049494767714112     
   50.223184184863001     
   20.134936614311762     
   93.934433937521376     
   20.009636279701496     
   20.200190443192881     
   26.375507056645979     
   22.415839416378816     
   20.067417459833575     
   21.476629001911348     
   20.028817265322605     
   20.030347217992556     
   20.013843671901149     
   20.072918158768598     
   20.045495354605830     
   23.396712286683627     
   65.434408487374711     
   32.120060083274616     
   21.261459766371189     
   20.021794949534399     
   20.002437730016169     
   20.070646261971760     
   21.857382756705817     
   20.206040874061184     
   20.047414964795713     
   20.148057415023153     
   20.004193272951934     
   20.781895827412423     
   20.006547210236796     
   20.006741366820147     
   20.002528677285188     
   20.005997982387395     
   20.004073794567400     
   27.086607133759678     
   20.009339352285153     
   28.542857924383547     
   20.000724713867186     
   20.002866888518771     
   21.213285537612624     
   20.001707048313509     
   20.000063269545400     
   20.000991696985000     
   20.999095306913034     
   20.695744880526870     
   21.323326375929796     
   20.000694454514928     
   20.000160542954148     
   32.949519811780931     
   20.000093295934136     
   41.469969607748361     
   20.000422875164961     
   20.000286130178733     
   20.000003028791497     
   20.000138851349845     
   20.000166834031337     
   37.493392912086641     
   20.000093174744954     
   20.000110037085040     
   20.000043615698921     
   20.000065142940862     
   20.000004733216706     
   20.000041668527569     
   20.000008192479733     
   20.000024535391390     
   20.000015463138979     
   20.000009024396000     
   20.000000113425525     
   20.000002010591079     
   20.000005495286302     
   20.000003136941256     
   20.000001925382069     
   20.000000191969146     
   20.000000335935930     
   20.000001091328407     
   20.000000660381342     
   20.000000369616277     
   20.000000003397144     
   20.000000073068801     
   20.000000216517645     
   20.000000118126835     
   20.000000069841104     
   20.000000005759372     
   20.000000010802207     
   20.000000038124352     
   20.000000022099208     
   20.000000011941534     
   20.000000000079833     
   20.000000002095472     
   20.000000006705218     
   20.000000003542386     
   20.000000002008210     
   20.000000000148741     
   20.000000000275790     
   20.000000001053291     