# vtk DataFile Version 2.0
 temperature
 ASCII
 DATASET UNSTRUCTURED_GRID
 POINTS         773  double
   0.0000000000000000        0.0000000000000000        0.0000000000000000     
   3.5000000000000000        0.0000000000000000        0.0000000000000000     
   3.5000000000000000        40.000000000000000        0.0000000000000000     
   0.0000000000000000        40.000000000000000        0.0000000000000000     
  0.43750000000000000        0.0000000000000000        0.0000000000000000     
  0.87500000000000000        0.0000000000000000        0.0000000000000000     
   1.3125000000000000        0.0000000000000000        0.0000000000000000     
   1.7500000000000000        0.0000000000000000        0.0000000000000000     
   2.1875000000000000        0.0000000000000000        0.0000000000000000     
   2.6250000000000000        0.0000000000000000        0.0000000000000000     
   3.0625000000000000        0.0000000000000000        0.0000000000000000     
   3.5000000000000000       0.50000000000000000        0.0000000000000000     
   3.5000000000000000        1.0000000000000000        0.0000000000000000     
   3.5000000000000000        1.5000000000000000        0.0000000000000000     
   3.5000000000000000        2.0000000000000000        0.0000000000000000     
   3.5000000000000000        2.5000000000000000        0.0000000000000000     
   3.5000000000000000        3.0000000000000000        0.0000000000000000     
   3.5000000000000000        3.5000000000000000        0.0000000000000000     
   3.5000000000000000        4.0000000000000000        0.0000000000000000     
   3.5000000000000000        4.5000000000000000        0.0000000000000000     
   3.5000000000000000        5.0000000000000000        0.0000000000000000     
   3.5000000000000000        5.5000000000000000        0.0000000000000000     
   3.5000000000000000        6.0000000000000000        0.0000000000000000     
   3.5000000000000000        6.5000000000000000        0.0000000000000000     
   3.5000000000000000        7.0000000000000000        0.0000000000000000     
   3.5000000000000000        7.5000000000000000        0.0000000000000000     
   3.5000000000000000        8.0000000000000000        0.0000000000000000     
   3.5000000000000000        8.5000000000000000        0.0000000000000000     
   3.5000000000000000        9.0000000000000000        0.0000000000000000     
   3.5000000000000000        9.5000000000000000        0.0000000000000000     
   3.5000000000000000        10.000000000000000        0.0000000000000000     
   3.5000000000000000        10.500000000000000        0.0000000000000000     
   3.5000000000000000        11.000000000000000        0.0000000000000000     
   3.5000000000000000        11.500000000000000        0.0000000000000000     
   3.5000000000000000        12.000000000000000        0.0000000000000000     
   3.5000000000000000        12.500000000000000        0.0000000000000000     
   3.5000000000000000        13.000000000000000        0.0000000000000000     
   3.5000000000000000        13.500000000000000        0.0000000000000000     
   3.5000000000000000        14.000000000000000        0.0000000000000000     
   3.5000000000000000        14.500000000000000        0.0000000000000000     
   3.5000000000000000        15.000000000000000        0.0000000000000000     
   3.5000000000000000        15.500000000000000        0.0000000000000000     
   3.5000000000000000        16.000000000000000        0.0000000000000000     
   3.5000000000000000        16.500000000000000        0.0000000000000000     
   3.5000000000000000        17.000000000000000        0.0000000000000000     
   3.5000000000000000        17.500000000000000        0.0000000000000000     
   3.5000000000000000        18.000000000000000        0.0000000000000000     
   3.5000000000000000        18.500000000000000        0.0000000000000000     
   3.5000000000000000        19.000000000000000        0.0000000000000000     
   3.5000000000000000        19.500000000000000        0.0000000000000000     
   3.5000000000000000        20.000000000000000        0.0000000000000000     
   3.5000000000000000        20.500000000000000        0.0000000000000000     
   3.5000000000000000        21.000000000000000        0.0000000000000000     
   3.5000000000000000        21.500000000000000        0.0000000000000000     
   3.5000000000000000        22.000000000000000        0.0000000000000000     
   3.5000000000000000        22.500000000000000        0.0000000000000000     
   3.5000000000000000        23.000000000000000        0.0000000000000000     
   3.5000000000000000        23.500000000000000        0.0000000000000000     
   3.5000000000000000        24.000000000000000        0.0000000000000000     
   3.5000000000000000        24.500000000000000        0.0000000000000000     
   3.5000000000000000        25.000000000000000        0.0000000000000000     
   3.5000000000000000        25.500000000000000        0.0000000000000000     
   3.5000000000000000        26.000000000000000        0.0000000000000000     
   3.5000000000000000        26.500000000000000        0.0000000000000000     
   3.5000000000000000        27.000000000000000        0.0000000000000000     
   3.5000000000000000        27.500000000000000        0.0000000000000000     
   3.5000000000000000        28.000000000000000        0.0000000000000000     
   3.5000000000000000        28.500000000000000        0.0000000000000000     
   3.5000000000000000        29.000000000000000        0.0000000000000000     
   3.5000000000000000        29.500000000000000        0.0000000000000000     
   3.5000000000000000        30.000000000000000        0.0000000000000000     
   3.5000000000000000        30.500000000000000        0.0000000000000000     
   3.5000000000000000        31.000000000000000        0.0000000000000000     
   3.5000000000000000        31.500000000000000        0.0000000000000000     
   3.5000000000000000        32.000000000000000        0.0000000000000000     
   3.5000000000000000        32.500000000000000        0.0000000000000000     
   3.5000000000000000        33.000000000000000        0.0000000000000000     
   3.5000000000000000        33.500000000000000        0.0000000000000000     
   3.5000000000000000        34.000000000000000        0.0000000000000000     
   3.5000000000000000        34.500000000000000        0.0000000000000000     
   3.5000000000000000        35.000000000000000        0.0000000000000000     
   3.5000000000000000        35.500000000000000        0.0000000000000000     
   3.5000000000000000        36.000000000000000        0.0000000000000000     
   3.5000000000000000        36.500000000000000        0.0000000000000000     
   3.5000000000000000        37.000000000000000        0.0000000000000000     
   3.5000000000000000        37.500000000000000        0.0000000000000000     
   3.5000000000000000        38.000000000000000        0.0000000000000000     
   3.5000000000000000        38.500000000000000        0.0000000000000000     
   3.5000000000000000        39.000000000000000        0.0000000000000000     
   3.5000000000000000        39.500000000000000        0.0000000000000000     
   3.0625000000000000        40.000000000000000        0.0000000000000000     
   2.6250000000000000        40.000000000000000        0.0000000000000000     
   2.1875000000000000        40.000000000000000        0.0000000000000000     
   1.7500000000000000        40.000000000000000        0.0000000000000000     
   1.3125000000000000        40.000000000000000        0.0000000000000000     
  0.87500000000000000        40.000000000000000        0.0000000000000000     
  0.43750000000000000        40.000000000000000        0.0000000000000000     
   0.0000000000000000        39.500000000000000        0.0000000000000000     
   0.0000000000000000        39.000000000000000        0.0000000000000000     
   0.0000000000000000        38.500000000000000        0.0000000000000000     
   0.0000000000000000        38.000000000000000        0.0000000000000000     
   0.0000000000000000        37.500000000000000        0.0000000000000000     
   0.0000000000000000        37.000000000000000        0.0000000000000000     
   0.0000000000000000        36.500000000000000        0.0000000000000000     
   0.0000000000000000        36.000000000000000        0.0000000000000000     
   0.0000000000000000        35.500000000000000        0.0000000000000000     
   0.0000000000000000        35.000000000000000        0.0000000000000000     
   0.0000000000000000        34.500000000000000        0.0000000000000000     
   0.0000000000000000        34.000000000000000        0.0000000000000000     
   0.0000000000000000        33.500000000000000        0.0000000000000000     
   0.0000000000000000        33.000000000000000        0.0000000000000000     
   0.0000000000000000        32.500000000000000        0.0000000000000000     
   0.0000000000000000        32.000000000000000        0.0000000000000000     
   0.0000000000000000        31.500000000000000        0.0000000000000000     
   0.0000000000000000        31.000000000000000        0.0000000000000000     
   0.0000000000000000        30.500000000000000        0.0000000000000000     
   0.0000000000000000        30.000000000000000        0.0000000000000000     
   0.0000000000000000        29.500000000000000        0.0000000000000000     
   0.0000000000000000        29.000000000000000        0.0000000000000000     
   0.0000000000000000        28.500000000000000        0.0000000000000000     
   0.0000000000000000        28.000000000000000        0.0000000000000000     
   0.0000000000000000        27.500000000000000        0.0000000000000000     
   0.0000000000000000        27.000000000000000        0.0000000000000000     
   0.0000000000000000        26.500000000000000        0.0000000000000000     
   0.0000000000000000        26.000000000000000        0.0000000000000000     
[...]
 CELL_DATA        1368
 SCALARS T double
 LOOKUP_TABLE default
   20.002377135549541     
   20.088409751453366     
   1643.5787640603039     
   23.328383898017385     
   20.000000000000000     
   20.009299477229064     
   1250.7782680334947     
   20.007254030382789     
   20.000022131216550     
   20.005163897387074     
   20.000059552787096     
   21.549400699135866     
   20.003524398426254     
   23.597629031051941     
   21.803361071225911     
   1183.1033537823182     
   1643.9448327827492     
   20.000268199944198     
   20.000198020131549     
   20.018852408164761     
   20.000137057391264     
   20.000000296849056     
   1711.3063331065255     
   20.000000905376872     
   20.001811084132502     
   20.102440504889142     
   20.000085567127865     
   20.012445805386871     
   20.002721290790355     
   20.000029594212116     
   20.022042201696557     
   20.000000000000000     
   20.068165464877122     
   20.106227353150548     
   20.120219405192749     
   20.000000000000000     
   20.000584400757443     
   20.000004762799879     
   20.000069851459020     
   20.000003395505733     
   20.000001294380645     
   20.004041603053636     
   20.000002239945562     
   22.924322024767683     
   20.000372443471552     
   305.61216523062757     
   299.95898195544089     
   20.002516481038313     
   20.004526048580363     
   637.71950394840962     
   636.62196906907366     
   20.000042910471052     
   20.000708620644108     
   20.000000000000000     
   1686.9224665678912     
   20.000000000000000     
   20.000000000000000     
   20.000000173533362     
   20.000000063372351     
   20.000000422873864     
   20.000000000000000     
   22.783477316033672     
   20.000001062502200     
   20.000000000000000     
   20.014206721427396     
   20.023434903621684     
   20.000011099022146     
   20.025541045770005     
   20.000058865042643     
   20.000113801400289     
   20.000000000000000     
   1651.3611210508698     
   20.000000000000000     
   20.000103137394294     
   20.000006774569467     
   20.000014286037906     
   20.000000000000000     
   20.000000000000000     
   20.000000000000000     
   280.22014779595537     
   20.000000624940544     
   20.000000045322682     
   137.34932211618448     
   20.000000010414777     
   68.972385313088992     
   20.000421897081015     
   20.000765537417394     
   277.26385062774443     
   20.000000118566991     
   808.06226833374910     
   20.000000846364049     
   20.000001807802384     
   26.204055610505609     
   20.000000000000025     
   752.98617888127728     
   20.000000000999108     
   21.863024812207090     
   20.000000000000000     
   20.000000002004665     
   20.000000000000000     
   136.50295486469423     
   20.000000000000000     
   140.65063071767361     
   140.23596023929213     
   20.000001595482235     
   20.000000096881486     
   20.000000000000000     
   20.000016848411764     
   20.000000000000000     
   20.000000000000000     
   20.321828037490874     
   399.02995320936100     
   20.149948903024583     
   20.000000000266176     
   20.000000000000000     
   20.000000000000000     
   73.551999264006625     
   20.032389595708512     
   73.039436034159749     
   20.000000000023626     
   20.000000000000000     
   20.000000000238288     
   20.000000027426765     
   68.618138083168148     
   20.006257454673516     
   189.23314773977228     
   20.000007764526920     
   20.000014855096520     
   20.000000016270523     
   20.000897673951599     
   20.000000000000000     
   20.000000000420179     
   406.58701138186012     
   20.001060136818261     
   20.000000000000000     
   20.000000000000533     
   20.000157809743502     
   41.726159067332269     
   1287.9182298195130     
   41.376888397133953     
   969.11417427589845     
   408.02936965372919     
   94.124219581352222     
   20.000000000635520     
   20.000000007105577     
   20.000000000024603     
   428.94248848955630     
   20.000000003080562     
   20.000000000000000     
   20.000000000000000     
   20.000000000023302     
   191.45245022309831     
   20.000000005327145     
   27.911881956876645     
   27.754013080719179     
   20.000000000000000     
   20.000000000021380     
   49.214972105655924     
   20.000000028480734     
   20.000000000000242     
   20.000000000000000     
   20.000000000000000     
   22.532029021997523     
   26.145414046467518     
   20.000000216186475     
   20.016181505753231     
   20.000000000000128     
   20.000000000000000     
   167.66548325907493     
   95.063862729639155     
   20.000000000148741     
   20.000000000004555     
   20.000000000000000     
   21.847559324812174     
   23.308960580618248     
   20.000000000012882     
   969.86893389093336     
   20.000508616887320     
   49.446478519831722     
   20.000000000000917     
   93.490752390825918     
   88.499232193378816     
   20.935970741382363     
   20.000000000001368     
   20.955108098322871     
   20.000000000039986     
   20.000000017783911     
   20.000000040127286     
   26.095853572381476     
   20.000000000000000     
   179.08446454735048     
   20.000009594003149     
   20.188897012816501     
   20.183214145062628     
   20.290438192708717     
   20.000000000000000     
   508.20820158862864     
   20.000000000078654     
   20.000000000000000     
   20.000000000002448     
   20.146808279378085     
   20.000000000006231     
   50.673209155954055     
   20.000000003448569     
   20.000000007877507     
   20.000000000148670     
   48.430043128369491     
   20.057286043787013     
   20.000000000003610     
   20.000000000000000     
   20.000000000009216     
   20.000000000000000     
   20.065782134960806     
   20.000000000000000     
   20.000000000221167     
   20.000000000001830     
   20.000000000845350     
   20.000000004558679     
   20.000017854788968     
   20.000000000015756     
   20.031684968502489     
   20.000000000000000     
   20.000000020301481     
   25.455649296879582     
   20.000000001482359     
   23.356452060146701     
   20.000000001261469     
   20.000000000000860     
   20.000000000000000     
   20.000000000001208     
   20.000000000071214     
   20.000000000000000     
   20.006104158286139     
   20.000000000000000     
   20.013382996480331     
   20.000000000000579     
   20.000000010591261     
   20.000000000000000     
   20.001033001443037     
   20.000000015493452     
   20.747863186413920     
   20.944493512968489     
   229.48932655047614     
   20.002170497894983     
   25.442567780545204     
   31.538415157218655     
   1396.0154290187620     
   30.647355351136440     
   20.000153997762787     
   20.000000000000306     
   20.000000000000000     
   20.000000118435580     
   20.000000000059970     
   20.002406224214511     
   1471.6186032065091     
   20.000000000000000     
   20.000000000000213     
   20.000000000002856     
   20.000000169566508     
   20.000000000089987     
   20.000000000000000     
   648.75059674763213     
   505.98139037916599     
   20.000001173987226     
   20.000000051979235     
   20.000000001342997     
   20.000382137458580     
   20.000000000000000     
   20.000001647824089     
   1418.0889426149540     
   20.296890670888946     
   20.000051573292321     
   20.000000000036252     
   20.000000000129642     
   20.000000000052236     
   20.000000000000000     
   20.000010334253478     
   20.000000000000000     
   1316.4444682354579     
   1171.9904101245631     
   20.000000000000000     
   1193.9871660165472     
   20.000000000000000     
   20.000014218721290     
   1315.5043466966956     
   20.000000036503920     
   20.717973108806195     
   800.54447646726419     
   1335.7628220610870     
   20.000000000000000     
   20.067720674587733     
   20.000000000000000     
   20.000000000000096     
   20.000000000044320     
   20.000000000110919     
   20.000000000000000     
   20.000000000000000     
   20.000000000000000     
   20.000000000000000     
   847.51974991970553     
   20.013777120762274     
   20.000000000000000     
   565.10766966215658     
   20.000000000000000     
   20.000000000000000     
   20.002479578232816     
   20.000393927280790     
   20.000000000000000     
   20.000000000000000     
   1108.5769387917860     
   20.000000000000000     
   1244.0699130921960     
   996.47932702302649     
   20.000000000097927     
   20.000000000061295     
   1423.1217175936406     
   20.641834491941122     
   236.32352217602630     
   20.000000752216799     
   20.000000000000000     
   20.000000000000000     
   20.000000000000000     
   695.63797083869827     
   20.000000000009937     
   20.000000000000000     
   20.000000000000028     
   20.000000000006473     
   20.000000004624528     
   1255.4088407363981     
   726.12593293290911     
   20.000000000000000     
   20.000000000000000     
   24.308341014293550     
   1115.1873920304772     
   20.000000000007109     
   20.000000000000000     
   1157.7673277875028     
   1213.3833891289187     
   20.000000006676533     
   20.000000000358050     
   923.92126315656981     
   20.000000000000000     
   20.000000000000000     
   20.000000000000000     
   20.000000000000000     
   824.60607018655048     
   20.000000000527262     
   20.000000000000000     
   20.000000000000000     
   20.413154110419978     
   20.278915343509812     
   20.000000000000000     
   20.000000000000000     
   20.000000023458956     
   20.000000000000000     
   1060.4906892067697     
   20.000000000000000     
   951.55710931919486     
   20.000000000000000     
   763.77310576737034     
   20.000000000000000     
   878.58024990734771     
   679.34994694294426     
   962.71725167697491     
   1136.1720105367892     
   934.33475148306275     
   20.000000000000000     
   20.000000000000000     
   20.000000000000000     
   789.58202196488617     
   731.49268762998520     
   651.03102257089949     
   628.29386126963936     
   1024.7608010251427     
   555.68786170099770     
   20.000000000008608     
   20.000000000000000     
   20.000000000000000     
   20.000000000000000     
   1190.1853504370085     
   773.31417025978737     
   791.62606118882763     
   856.90561730572836     
   528.30198311841025     
   603.58911801192971     
   20.000000000000000     
   20.000000000000000     
   20.000000000000046     
   425.56435673266606     
   710.26470164714135     
   424.76574786329547     
   20.000000000000000     
   20.000000000000437     
   20.000000000000597     
   515.36808026478968     
   366.79955143831819     
   639.09429740370626     
   20.000000000000117     
   476.78768992060230     
   532.28152943127270     
   20.000000000000000     
   20.000000000000153     
   527.56011942587202     
   20.000000000001453     
   20.000000000000330     
   419.54567376323638     
   20.000000000000913     
   20.000000000000000     
   20.000000000000000     
   20.000000000001659     
   451.32578228830397     
   337.20990780427280     
   364.94586826209002     
   20.000000000000000     
   269.18920947462976     
   293.52779429727354     
   20.000000000003947     
   20.000000000006366     
   20.000000000000000     
   20.000000000007994     
   583.76510293730121     
   20.000000000039748     
   20.000000000060979     
   20.000000000099082     
   20.000000000012452     
   216.40241109258230     
   20.000000000025562     
   20.000000000016048     
   279.40230382365280     
   20.000000000099945     
   20.000000000040203     
   20.000000000000011     
   20.000000000361528     
   20.000000000312689     
   20.000000000190099     
   20.000000000575874     
   20.000000000063618     
   20.000000003190813     
   20.000000004746788     
   20.000000038408142     
   20.000000016882147     
   20.000000011281390     
   20.000000025493602     
   20.000000083846611     
   20.000000846868449     
   20.000000125488690     
   20.000000084432468     
   20.000000403997852     
   20.000000185942540     
   20.000007598094882     
   20.000001241996980     
   20.000000852551366     
   20.000003773682494     
   20.000001804595819     
   20.000004049259456     
   20.000000273032271     
   20.000008329631775     
   20.000005450687109     
   20.000002675684012     
   20.000001945932009     
   20.000060066569752     
   20.000010917153038     
   20.000007646423601     
   20.000031289836748     
   20.000015551700947     
   20.000002598046223     
   262.61964547695209     
   20.000423960354215     
   20.000085213944161     
   20.000060710660044     
   20.000228042604604     
   20.000117797467791     
   20.000021950717759     
   20.000448073756800     
   20.000293556570288     
   20.000118399169672     
   20.000227452438320     
   20.002649991321789     
   20.000588587955818     
   20.000428161542150     
   20.001483918641675     
   20.000801796904543     
   20.000164538124444     
   20.000157770402605     
   20.014687844536052     
   20.003603521391316     
   20.002675160053663     
   20.008550391270621     
   20.004812806854424     
   20.001091107858706     
   20.014020497686239     
   20.009816070482671     
   20.004453646517106     
   20.007906443067615     
   20.072165243338659     
   20.019556225008852     
   20.014817336941448     
   20.043755100127633     
   20.025522782433029     
   20.006415945211387     
   142.09942601085939     
   161.20114234784131     
   154.17375379478500     
   20.005696184643259     
   20.119828409433367     
   63.424177263476707     
   177.33668756840822     
   65.012432121582265     
   57.429545009350910     
   72.341553011797885     
   20.314524715319159     
   179.88938080585248     
   130.87083399090412     
   191.68395967694758     
   20.094152667432684     
   20.072775639849898     
   31.730227290408457     
   127.93980412872979     
   52.956204466704129     
   30.848346757362446     
   66.183305468630920     
   20.033458352060062     
   47.114551321017373     
   151.23160075102265     
   20.155445631075128     
   20.198723349680627     
   205.12304683930046     
   102.37763914453168     
   88.686464863793617     
   55.842249126803814     
   22.158729951040101     
   49.378787761781020     
   20.781827713854252     
   20.708504351206845     
   34.460924126987173     
   22.504091839598406     
   224.87126732388833     
   20.401093986245460     
   20.316718173857989     
   140.65708780468813     
   20.861862202668458     
   135.66480125223390     
   33.802315371314400     
   78.605378821488031     
   22.368487252892745     
   85.918767099561236     
   89.849737277382715     
   80.776402004695171     
   143.79228706588373     
   20.497296045586090     
   71.192377723155559     
   38.262135913558858     
   39.529486710292119     
   187.40786273426974     
   43.230623994360222     
   215.26710572793169     
   28.646396905526835     
   30.099937893618474     
   33.183717351387415     
   111.73347979390613     
   223.50185728996698     
   22.928653753446195     
   94.418573481404806     
   204.41544001461995     
   20.000000001064222     
   30.750559215559932     
   31.749804749384168     
   244.32381204197441     
   20.000000009050964     
   20.000000001730161     
   26.673013465239080     
   20.634295224684443     
   35.333024094804159     
   60.947624780102856     
   382.96193621030056     
   253.58643325755259     
   166.43937229989288     
   192.99899194791931     
   87.247160696703261     
   48.587221351851646     
   30.981964256408169     
   23.791063517841494     
   21.166947438115120     
   20.318377147344819     
   20.077900582803196     
   20.016867678026433     
   20.003238450372830     
   20.000548854776152     
   20.000082829667811     
   20.000010856451770     
   20.000001310703897     
   20.000000136524736     
   20.000000012768531     
   20.000000005647397     
   20.000000002477297     
   20.000000004002462     
   20.000000000452619     
   20.000000000739888     
   20.000000000032156     
   20.000000000002114     
   20.000000000000224     
   20.000000000000000     
   20.000000000584812     
   20.000000000000000     
   20.000000000000000     
   20.000000000000473     
   20.000000000010232     
   20.000000000156934     
   20.000000000905299     
   20.000000002119332     
   20.000000001388990     
   20.000000004927525     
   20.000000003256073     
   20.000000057422419     
   20.000000590798155     
   20.000005400246749     
   20.000043836900648     
   20.000315348794313     
   20.002008804837995     
   20.011342439622744     
   20.056777509330651     
   20.252047320797676     
   20.994071966963098     
   23.488421165614255     
   30.942176743337690     
   35.622355458175335     
   32.971881219754387     
   42.100303080919709     
   50.706605628332163     
   97.417903007693994     
   196.19008370437132     
   384.58534222828837     
   36.765601479612975     
   107.95242587980898     
   118.29740850375174     
   69.051868943707916     
   20.000000000243727     
   43.527225535702129     
   171.00061228032965     
   26.303305848622166     
   49.756964632987383     
   22.556508970227057     
   20.000000000376350     
   23.856279904542479     
   41.439431710414340     
   149.29614083069171     
   27.433525766518162     
   234.61102410426756     
   22.032196739407755     
   29.253209189985938     
   75.456322535889868     
   51.591115222223998     
   25.232499571735190     
   45.975282197635281     
   23.289231354062231     
   23.488082272131372     
   22.348270598426577     
   25.813017258593451     
   24.351719168385650     
   58.551146528711477     
   178.00301129192422     
   91.814165216795985     
   45.744161825649385     
   23.067370373729172     
   20.947727549040721     
   25.634069841235672     
   47.996520659182238     
   29.626424766009741     
   24.550798786104234     
   28.216292434962703     
   21.335978864207281     
   38.661048251354941     
   21.691830097404100     
   21.743822417912600     
   20.994947967632058     
   21.537080432871250     
   21.285182202365121     
   74.046363365954022     
   21.954200612782010     
   77.993981711063853     
   20.554193486039821     
   21.117271193611295     
   41.296456621608883     
   20.828717338101530     
   20.150332501129029     
   20.619928252293374     
   40.298073991090313     
   36.475534860284824     
   43.030789844495374     
   20.526192908732561     
   20.241020111009952     
   97.436074430447007     
   20.179189716566146     
   122.19572930757040     
   20.405009698860763     
   20.338587632358763     
   20.032954332962305     
   20.206027611189928     
   20.253639944301863     
   112.91327977568794     
   20.172008190157673     
   20.209568211784347     
   20.135075691069858     
   20.158337704870902     
   20.040365617636759     
   20.128467058249704     
   20.054230188220295     
   20.097209853568060     
   20.078468132931508     
   20.058988666020745     
   20.006343742960706     
   20.029081360566902     
   20.046870567288931     
   20.034797239090491     
   20.027674074192259     
   20.008102612958059     
   20.010915219110213     
   20.020523169592998     
   20.016240440793418     
   20.011934844236830     
   20.001100937944162     
   20.005549573431558     
   20.009303511342786     
   20.006747132486993     
   20.005268484956275     
   20.001402695905380     
   20.001965574845091     
   20.003831485121577     
   20.002969107390761     
   20.002144480494504     
   20.000167570883384     
   20.000939403722491     
   20.001636759924949     
   20.001167639626932     
   20.000892598932218     
   20.000224535954249     
   20.000311589544882     
   20.000635546035692     