# vtk DataFile Version 2.0
 temperature
 ASCII
 DATASET UNSTRUCTURED_GRID
 POINTS         773  double
   0.0000000000000000        0.0000000000000000        0.0000000000000000     
   3.5000000000000000        0.0000000000000000        0.0000000000000000     
   3.5000000000000000        40.000000000000000        0.0000000000000000     
   0.0000000000000000        40.000000000000000        0.0000000000000000     
  0.43750000000000000        0.0000000000000000        0.0000000000000000     
  0.87500000000000000        0.0000000000000000        0.0000000000000000     
   1.3125000000000000        0.0000000000000000        0.0000000000000000     
   1.7500000000000000        0.0000000000000000        0.0000000000000000     
   2.1875000000000000        0.0000000000000000        0.0000000000000000     
   2.6250000000000000        0.0000000000000000        0.0000000000000000     
   3.0625000000000000        0.0000000000000000        0.0000000000000000     
   3.5000000000000000       0.50000000000000000        0.0000000000000000     
   3.5000000000000000        1.0000000000000000        0.0000000000000000     
   3.5000000000000000        1.5000000000000000        0.0000000000000000     
   3.5000000000000000        2.0000000000000000        0.0000000000000000     
   3.5000000000000000        2.5000000000000000        0.0000000000000000     
   3.5000000000000000        3.0000000000000000        0.0000000000000000     
   3.5000000000000000        3.5000000000000000        0.0000000000000000     
   3.5000000000000000        4.0000000000000000        0.0000000000000000     
   3.5000000000000000        4.5000000000000000        0.0000000000000000     
   3.5000000000000000        5.0000000000000000        0.0000000000000000     
   3.5000000000000000        5.5000000000000000        0.0000000000000000     
   3.5000000000000000        6.0000000000000000        0.0000000000000000     
   3.5000000000000000        6.5000000000000000        0.0000000000000000     
   3.5000000000000000        7.0000000000000000        0.0000000000000000     
   3.5000000000000000        7.5000000000000000        0.0000000000000000     
   3.5000000000000000        8.0000000000000000        0.0000000000000000     
   3.5000000000000000        8.5000000000000000        0.0000000000000000     
   3.5000000000000000        9.0000000000000000        0.0000000000000000     
   3.5000000000000000        9.5000000000000000        0.0000000000000000     
   3.5000000000000000        10.000000000000000        0.0000000000000000     
   3.5000000000000000        10.500000000000000        0.0000000000000000     
   3.5000000000000000        11.000000000000000        0.0000000000000000     
   3.5000000000000000        11.500000000000000        0.0000000000000000     
   3.5000000000000000        12.000000000000000        0.0000000000000000     
   3.5000000000000000        12.500000000000000        0.0000000000000000     
   3.5000000000000000        13.000000000000000        0.0000000000000000     
   3.5000000000000000        13.500000000000000        0.0000000000000000     
   3.5000000000000000        14.000000000000000        0.0000000000000000     
   3.5000000000000000        14.500000000000000        0.0000000000000000     
   3.5000000000000000        15.000000000000000        0.0000000000000000     
   3.5000000000000000        15.500000000000000        0.0000000000000000     
   3.5000000000000000        16.000000000000000        0.0000000000000000     
   3.5000000000000000        16.500000000000000        0.0000000000000000     
   3.5000000000000000        17.000000000000000        0.0000000000000000     
   3.5000000000000000        17.500000000000000        0.0000000000000000     
   3.5000000000000000        18.000000000000000        0.0000000000000000     
   3.5000000000000000        18.500000000000000        0.0000000000000000     
   3.5000000000000000        19.000000000000000        0.0000000000000000     
   3.5000000000000000        19.500000000000000        0.0000000000000000     
   3.5000000000000000        20.000000000000000        0.0000000000000000     
   3.5000000000000000        20.500000000000000        0.0000000000000000     
   3.5000000000000000        21.000000000000000        0.0000000000000000     
   3.5000000000000000        21.500000000000000        0.0000000000000000     
   3.5000000000000000        22.000000000000000        0.0000000000000000     
   3.5000000000000000        22.500000000000000        0.0000000000000000     
   3.5000000000000000        23.000000000000000        0.0000000000000000     
   3.5000000000000000        23.500000000000000        0.0000000000000000     
   3.5000000000000000        24.000000000000000        0.0000000000000000     
   3.5000000000000000        24.500000000000000        0.0000000000000000     
   3.5000000000000000        25.000000000000000        0.0000000000000000     
   3.5000000000000000        25.500000000000000        0.0000000000000000     
   3.5000000000000000        26.000000000000000        0.0000000000000000     
   3.5000000000000000        26.500000000000000        0.0000000000000000     
   3.5000000000000000        27.000000000000000        0.0000000000000000     
   3.5000000000000000        27.500000000000000        0.0000000000000000     
   3.5000000000000000        28.000000000000000        0.0000000000000000     
   3.5000000000000000        28.500000000000000        0.0000000000000000     
   3.5000000000000000        29.000000000000000        0.0000000000000000     
   3.5000000000000000        29.500000000000000        0.0000000000000000     
   3.5000000000000000        30.000000000000000        0.0000000000000000     
   3.5000000000000000        30.500000000000000        0.0000000000000000     
   3.5000000000000000        31.000000000000000        0.0000000000000000     
   3.5000000000000000        31.500000000000000        0.0000000000000000     
   3.5000000000000000        32.000000000000000        0.0000000000000000     
   3.5000000000000000        32.500000000000000        0.0000000000000000     
   3.5000000000000000        33.000000000000000        0.0000000000000000     
   3.5000000000000000        33.500000000000000        0.0000000000000000     
   3.5000000000000000        34.000000000000000        0.0000000000000000     
   3.5000000000000000        34.500000000000000        0.0000000000000000     
   3.5000000000000000        35.000000000000000        0.0000000000000000     
   3.5000000000000000        35.500000000000000        0.0000000000000000     
   3.5000000000000000        36.000000000000000        0.0000000000000000     
   3.5000000000000000        36.500000000000000        0.0000000000000000     
   3.5000000000000000        37.000000000000000        0.0000000000000000     
   3.5000000000000000        37.500000000000000        0.0000000000000000     
   3.5000000000000000        38.000000000000000        0.0000000000000000     
   3.5000000000000000        38.500000000000000        0.0000000000000000     
   3.5000000000000000        39.000000000000000        0.0000000000000000     
   3.5000000000000000        39.500000000000000        0.0000000000000000     
   3.0625000000000000        40.000000000000000        0.0000000000000000     
   2.6250000000000000        40.000000000000000        0.0000000000000000     
   2.1875000000000000        40.000000000000000        0.0000000000000000     
   1.7500000000000000        40.000000000000000        0.0000000000000000     
   1.3125000000000000        40.000000000000000        0.0000000000000000     
  0.87500000000000000        40.000000000000000        0.0000000000000000     
  0.43750000000000000        40.000000000000000        0.0000000000000000     
   0.0000000000000000        39.500000000000000        0.0000000000000000     
   0.0000000000000000        39.000000000000000        0.0000000000000000     
   0.0000000000000000        38.500000000000000        0.0000000000000000     
   0.0000000000000000        38.000000000000000        0.0000000000000000     
   0.0000000000000000        37.500000000000000        0.0000000000000000     
   0.0000000000000000        37.000000000000000        0.0000000000000000     
   0.0000000000000000        36.500000000000000        0.0000000000000000     
   0.0000000000000000        36.000000000000000        0.0000000000000000     
   0.0000000000000000        35.500000000000000        0.0000000000000000     
   0.0000000000000000        35.000000000000000        0.0000000000000000     
   0.0000000000000000        34.500000000000000        0.0000000000000000     
   0.0000000000000000        34.000000000000000        0.0000000000000000     
   0.0000000000000000        33.500000000000000        0.0000000000000000     
   0.0000000000000000        33.000000000000000        0.0000000000000000     
   0.0000000000000000        32.500000000000000        0.0000000000000000     
   0.0000000000000000        32.000000000000000        0.0000000000000000     
   0.0000000000000000        31.500000000000000        0.0000000000000000     
   0.0000000000000000        31.000000000000000        0.0000000000000000     
   0.0000000000000000        30.500000000000000        0.0000000000000000     
   0.0000000000000000        30.000000000000000        0.0000000000000000     
   0.0000000000000000        29.500000000000000        0.0000000000000000     
   0.0000000000000000        29.000000000000000        0.0000000000000000     
   0.0000000000000000        28.500000000000000        0.0000000000000000     
   0.0000000000000000        28.000000000000000        0.0000000000000000     
   0.0000000000000000        27.500000000000000        0.0000000000000000     
   0.0000000000000000        27.000000000000000        0.0000000000000000     
   0.0000000000000000        26.500000000000000        0.0000000000000000     
   0.0000000000000000        26.000000000000000        0.0000000000000000     
[...]
 CELL_DATA        1368
 SCALARS T double
 LOOKUP_TABLE default
   20.573963613552799     
   23.981070984066722     
   1675.0587108136322     
   41.830388990222183     
   20.000000099725430     
   21.191642047006120     
   1278.3205939988911     
   21.085207714353590     
   20.060659256563337     
   20.893777822505765     
   20.099116060123947     
   35.919818502075586     
   20.829467210988241     
   43.823931592493857     
   37.124948857071082     
   1211.2358195968086     
   1676.1782761024094     
   20.218166756003825     
   20.194587650484578     
   21.866097124155786     
   20.158865388988083     
   20.008093915873076     
   1736.1245305624188     
   20.014026468751858     
   20.486104160363485     
   23.976441740857933     
   20.141699144356132     
   21.405928224837510     
   20.655774134451235     
   20.071364131280351     
   21.861283045928623     
   20.000000188977314     
   23.447681296845222     
   24.294761256012649     
   24.250581332049101     
   20.000000156839285     
   20.351570876070760     
   20.032809603876185     
   20.115229278793077     
   20.028850207199831     
   20.019980031801001     
   20.819551259602225     
   20.023023122766432     
   42.498561798475905     
   20.261426609036938     
   432.95884372906443     
   425.27180000398346     
   20.692254202517550     
   20.916108956362500     
   694.91440168863301     
   699.38062282934118     
   20.081898558302829     
   20.355306762847579     
   20.000000146727039     
   1707.8634103552520     
   20.000000126011944     
   20.000000387637002     
   20.007243959862233     
   20.003942571935546     
   20.009833950033318     
   20.000000512837556     
   41.104854561254037     
   20.016322507925668     
   20.000001082847046     
   21.596577619076459     
   22.040656510627876     
   20.054308207779197     
   21.975670529201707     
   20.116361356142853     
   20.158621386569671     
   20.000000313448048     
   1676.0351948164155     
   20.000000640114216     
   20.143057521258495     
   20.039623468022800     
   20.056395888958843     
   20.000001665472393     
   20.000004522939832     
   20.000000248914773     
   408.68809950824090     
   20.011366175339063     
   20.003504153004130     
   247.34060886953151     
   20.001916399574181     
   151.77656282888506     
   20.295292971999974     
   20.392270117975873     
   404.81652281569967     
   20.005915441668037     
   859.16094282353470     
   20.016029479333831     
   20.022796119068090     
   60.621658158978470     
   20.000017920122950     
   803.03939276168103     
   20.000722640469235     
   41.414729766537690     
   20.000006814945689     
   20.000895309483557     
   20.000002195681521     
   245.67303331315347     
   20.000001352072641     
   213.67853350086023     
   216.72174303447417     
   20.020334717171174     
   20.004968851661982     
   20.000000242133087     
   20.054618536963481     
   20.000000197904537     
   20.000002673398917     
   26.937366897216023     
   519.49635943567921     
   25.891051664834318     
   20.000384560590337     
   20.000000849208437     
   20.000000100337395     
   133.47936505068887     
   22.770409319701596     
   135.09769343887626     
   20.000150431171168     
   20.000001360768533     
   20.000344949878421     
   20.003346618392534     
   150.79190605497774     
   21.249595048012921     
   306.31137161811586     
   20.045050438819992     
   20.061031497418355     
   20.002426650022755     
   20.390972307021567     
   20.000000315242062     
   20.000485186065362     
   529.96095616350544     
   20.535108682855320     
   20.000005589146074     
   20.000026657454207     
   20.217431140669177     
   85.284661329445782     
   1319.8076095127549     
   86.289061209698943     
   1007.2502035909991     
   480.51997498389977     
   187.80252683464718     
   20.000572803672828     
   20.001652988112284     
   20.000118136229414     
   503.31554036386223     
   20.001121688924876     
   20.000003578145815     
   20.000005635925255     
   20.000147257978043     
   310.27912580343491     
   20.001567024056033     
   56.391781014015713     
   56.840472245120274     
   20.000008891874014     
   20.000102436353561     
   115.67064552315696     
   20.002710922549305     
   20.000021855888047     
   20.000010778323169     
   20.000000827829663     
   37.917253640232772     
   60.253050366944969     
   20.007185356098081     
   21.551504051182356     
   20.000022110557151     
   20.000000092235318     
   243.20824607550881     
   190.13539394985779     
   20.000269276773121     
   20.000060402565765     
   20.000014215034653     
   41.232009057119313     
   48.511929372677507     
   20.000077765646214     
   1011.9342355529246     
   20.294203262222258     
   116.72419367193062     
   20.000034437753868     
   161.44048408607119     
   153.18191644607779     
   34.730064495417075     
   20.000041161913877     
   32.515547461178940     
   20.000152287296633     
   20.002675270965668     
   20.003900362019113     
   55.357256415661588     
   20.000000233423755     
   258.41989160493256     
   20.045232460045352     
   25.068344564579359     
   25.049547202176090     
   27.924509426346965     
   20.000000118756489     
   578.78803620823453     
   20.000178735395224     
   20.000000208074916     
   20.000053507731057     
   25.767110857738519     
   20.000082482049187     
   101.94762982142946     
   20.001253967199393     
   20.001835967858305     
   20.000344701961708     
   96.925309268905053     
   23.000273419296082     
   20.000063492950769     
   20.000000253913786     
   20.000097834790903     
   20.000000473357630     
   23.783323387246572     
   20.000000103923934     
   20.000409939759386     
   20.000039163935533     
   20.000767073249822     
   20.001304745011193     
   20.061499925557996     
   20.000125724667704     
   22.710668459355428     
   20.000000290064722     
   20.002412508162443     
   53.234142801658635     
   20.000848095718386     
   48.961415346625820     
   20.000913310839991     
   20.000025297528126     
   20.000000163157043     
   20.000030894422860     
   20.000214523845010     
   20.000000380944471     
   21.221876436637139     
   20.000003486496816     
   21.737272999970926     
   20.000019962356156     
   20.002458956379076     
   20.000000180735299     
   20.522987064526905     
   20.002902973685675     
   30.977959079610983     
   34.927120588140177     
   324.04992640076165     
   20.609887113699589     
   50.742180646388853     
   66.162474955176606     
   1433.3021599282613     
   63.235170448857254     
   20.212334855062011     
   20.000016237781409     
   20.000006569513964     
   20.007502948222463     
   20.000227440381273     
   20.760633395384936     
   1514.7992227302418     
   20.000005111696670     
   20.000012786031924     
   20.000047486150585     
   20.008775317429912     
   20.000270918394701     
   20.000000454185354     
   738.38929268892502     
   570.36485078824182     
   20.021730191429178     
   20.004043642016214     
   20.000764667122812     
   20.317030811633206     
   20.000000455176142     
   20.025204477214782     
   1458.4648614582954     
   28.133410981364516     
   20.103476296469502     
   20.000178343770703     
   20.000234691352421     
   20.000154649389295     
   20.000000466935756     
   20.059827560617752     
   20.000000424624663     
   1380.1612227251228     
   1188.3432415119112     
   20.000000077388865     
   1250.6254130792681     
   20.000000517697242     
   20.068814293407872     
   1365.5762431088826     
   20.003528784040757     
   29.612875628122548     
   865.70908728229222     
   1388.3411922956673     
   20.000001803932779     
   23.900790613566350     
   20.000000155289122     
   20.000010394431449     
   20.000168464500206     
   20.000256975977173     
   20.000004141355895     
   20.000000235749273     
   20.000001991584263     
   20.000000194307354     
   918.59147386131974     
   21.792759624108815     
   20.000008092945297     
   655.35799251554556     
   20.000000170418367     
   20.000003194183709     
   20.785741661956436     
   20.327656007073443     
   20.000000097929071     
   20.000000146120573     
   1174.6497324318011     
   20.000000328663742     
   1288.2007904631746     
   1068.0134513886585     
   20.000229418497643     
   20.000179438817437     
   1477.2767437272851     
   29.098044602452372     
   328.54736012112164     
   20.014359227143935     
   20.000000222004847     
   20.000000123982900     
   20.000000516240593     
   777.01146328648474     
   20.000077651149255     
   20.000000332528902     
   20.000013947709636     
   20.000065507709689     
   20.001677498722117     
   1316.6418108083001     
   762.45877550077523     
   20.000000202113757     
   20.000000409464967     
   47.163355395317907     
   1197.2272988001855     
   20.000072318899111     
   20.000000762651471     
   1210.9764849431890     
   1286.9473309974751     
   20.001968000381666     
   20.000516499422826     
   1004.3545591471379     
   20.000000347300773     
   20.000001906330208     
   20.000001006377172     
   20.000001182332742     
   909.07369370843708     
   20.000611224033062     
   20.000001617208426     
   20.000002177530330     
   28.572823741125994     
   26.238876576781934     
   20.000000866330435     
   20.000000277926564     
   20.002788829333216     
   20.000000666561764     
   1138.1177705751109     
   20.000001391484652     
   1035.3224253993144     
   20.000000694686136     
   856.25582406596334     
   20.000000262039883     
   971.18603982168202     
   774.37390871652906     
   1029.9044585040754     
   1204.9693977688912     
   1032.1837721498118     
   20.000000618081639     
   20.000000288585294     
   20.000000537414646     
   868.87607451793326     
   835.34968677538234     
   757.54482240867549     
   730.18313713872237     
   1115.2622040409747     
   658.47058070344110     
   20.000067276055375     
   20.000000733779373     
   20.000002896885263     
   20.000002609813599     
   1231.0071030286936     
   884.15597258050616     
   888.41510432642315     
   961.65243931419923     
   625.05483458289370     
   715.64576229409283     
   20.000002830984080     
   20.000002199197915     
   20.000008705884966     
   555.44725926145395     
   826.19742770711719     
   553.31963269671132     
   20.000003473760817     
   20.000013802576603     
   20.000018636393133     
   623.66873928927635     
   466.04589691159964     
   759.32511897431607     
   20.000007614659502     
   605.69109157857167     
   645.37119632647534     
   20.000003035353938     
   20.000011546281875     
   653.94845447421551     
   20.000028891041822     
   20.000011879752183     
   531.86731888114866     
   20.000021505791008     
   20.000011407882564     
   20.000008952252248     
   20.000033051965048     
   559.07076937144836     
   451.43415994015754     
   475.01965537945568     
   20.000003561919492     
   382.38539726347398     
   404.07473854834802     
   20.000067455627029     
   20.000083719192631     
   20.000004846132065     
   20.000083202292959     
   707.73768188367944     
   20.000192245590117     
   20.000232517775242     
   20.000292123199937     
   20.000100155494785     
   295.12781069229771     
   20.000158383288262     
   20.000127638380523     
   397.06611922291916     
   20.000295435886244     
   20.000194497287282     
   20.000005609692426     
   20.000404995486925     
   20.000351545287678     
   20.000268008775265     
   20.000656028602535     
   20.000240507774457     
   20.001441869425573     
   20.001721040085222     
   20.004574751738605     
   20.003129036885760     
   20.002602221248630     
   20.003792259340099     
   20.006519345310789     
   20.019024696633942     
   20.007921859730814     
   20.006581446334991     
   20.013585940136540     
   20.009484126253604     
   20.052780991399931     
   20.022913355057600     
   20.019201833472163     
   20.038340891491700     
   20.027204562758595     
   20.028108573292283     
   20.011349435248604     
   20.039226758969921     
   20.030848408980447     
   20.022252976373132     
   20.019999036616827     
   20.138785326200995     
   20.063011895716834     
   20.053259619052728     
   20.102897423315277     
   20.074196182387784     
   20.032279157150981     
   384.74674192310727     
   20.348347145065283     
   20.164922209621619     
   20.140334438241066     
   20.261607252388856     
   20.191669601772936     
   20.087302466396814     
   20.258045363280953     
   20.201569377075536     
   20.136907407687026     
   20.186437993625955     
   20.832199871702947     
   20.410189437742059     
   20.352074095509625     
   20.635050872503783     
   20.474107509247336     
   20.224683541370553     
   20.150664545419112     
   21.895788886842858     
   20.971619459903540     
   20.840851267985453     
   21.468691153007541     
   21.114283232311397     
   20.549610229516254     
   21.345698426436069     
   21.085779453509677     
   20.770928650146711     
   21.017102643221094     
   24.122198178104750     
   22.194841330243026     
   21.914771681268125     
   23.244043839628429     
   22.493797826835362     
   21.281246003824368     
   236.02517893816375     
   270.28691090862321     
   246.97113939542319     
   20.834948398211210     
   25.326369602870500     
   130.34855179835742     
   286.99962444685838     
   141.55582559097977     
   127.93526675429791     
   145.62832876158961     
   28.569266384346239     
   269.11662215076564     
   235.53784734430954     
   288.76687632635549     
   24.734455416174274     
   24.162223923154158     
   71.197363217296370     
   229.80381471079724     
   120.92704758466479     
   67.133804113905171     
   144.83436704779703     
   22.849869775316186     
   109.15371280822116     
   234.03650850419984     
   26.070108106671704     
   26.849184358859876     
   320.30079298755675     
   196.55728406597495     
   176.20225761265158     
   123.27119766772967     
   40.627490886336396     
   104.26541365267848     
   33.673375334307828     
   32.490804509394984     
   78.643620196052481     
   41.891111177263966     
   327.76900111565891     
   29.758106945675280     
   28.647393051367114     
   243.96559531780031     
   33.655382805867163     
   234.50916201612563     
   80.549152036251499     
   152.73080501330324     
   40.577545201181927     
   169.78605551886113     
   170.20539399235543     
   166.09704727831209     
   229.98397128828714     
   30.859123231809821     
   150.38738863323056     
   93.984235614743383     
   93.783209655209731     
   292.28089609762986     
   91.670620097111353     
   325.26206585767670     
   60.681875906153671     
   67.825094931604028     
   77.775662520269989     
   207.67043243941157     
   338.46355414563550     
   45.357255982419943     
   180.01680373886649     
   268.50513804558130     
   20.000592840533503     
   70.899730436397519     
   75.804751253874088     
   313.94900430409189     
   20.001659949468692     
   20.000773743210218     
   60.388082975614616     
   32.308331057688576     
   82.222251349135846     
   130.64643472454711     
   439.80221263933544     
   317.04771855150011     
   230.84539363540904     
   262.61569327767012     
   143.37669729812279     
   91.926090745787945     
   60.849426834398912     
   42.526967135336641     
   32.012741378983762     
   26.116617653846617     
   23.014724953653481     
   21.413462047167634     
   20.636366279766644     
   20.272160300057340     
   20.111037762020000     
   20.042490145674282     
   20.015955587276043     
   20.005549867966746     
   20.001866712642315     
   20.001281147587033     
   20.000872282003048     
   20.001136516275324     
   20.000398747749237     
   20.000523235700356     
   20.000118611406627     
   20.000033251980273     
   20.000008832401342     
   20.000002237172744     
   20.000664963347809     
   20.000001764249244     
   20.000007239573044     
   20.000028139604666     
   20.000104103871603     
   20.000364119558846     
   20.000814265378018     
   20.001203848490139     
   20.000989446979034     
   20.001775539834711     
   20.001464304137365     
   20.005516835848432     
   20.016226466452448     
   20.045369504459668     
   20.120678784124358     
   20.305242534841732     
   20.734648867874466     
   21.685493648642140     
   23.690481144645414     
   27.724003708102913     
   35.487844728760884     
   49.855320163123238     
   75.554704991544938     
   87.807757195253771     
   80.991532826617799     
   102.62464149978764     
   119.97854556792780     
   194.73991346621526     
   317.54858214156349     
   515.42153323579737     
   88.220389844852804     
   199.68450963210307     
   211.08344950113712     
   144.82075607745529     
   20.000444784714556     
   102.89653073080922     
   276.09918072277605     
   58.221582435305919     
   111.43588311299517     
   44.362105254695287     
   20.000544063585924     
   50.313338368709381     
   95.432114617724906     
   248.82587476981126     
   61.390430958628549     
   343.37830052221148     
   41.354703271659815     
   67.386666652862630     
   153.19137444356130     
   111.01806430412523     
   54.153598292028768     
   105.34880484788243     
   45.861808492819534     
   47.475759359933477     
   42.270836400167774     
   58.325630528723792     
   51.371994231284951     
   124.20935097361892     
   276.58312566381147     
   166.28432327133643     
   110.10400307486759     
   46.549321592918446     
   33.450252677283949     
   57.186010312960271     
   105.90683315409868     
   69.484364179466681     
   52.815827264420442     
   65.730109559390641     
   37.147311086441405     
   90.433570534627307     
   39.599424293624253     
   40.192098353923477     
   34.193222801139129     
   37.803147390802359     
   36.448027043928512     
   142.76950357652430     
   40.495685111103789     
   145.30591639541674     
   30.903582493381787     
   35.792777019584406     
   90.047410246832115     
   33.090099377437198     
   25.229226797520667     
   31.096374047816749     
   91.299911520268026     
   82.129466656651701     
   95.438066653892534     
   30.329408748179002     
   26.659885599411648     
   178.25118963509232     
   25.617991659073638     
   209.49149424591840     
   28.935758572123738     
   28.284552696313138     
   22.466848158712398     
   25.679592596235786     
   27.051340809946051     
   200.40446120053045     
   25.295851602678418     
   26.502293077934976     
   25.338344889015143     
   25.562352095678147     
   22.676129350012467     
   25.079301786547443     
   23.153137412154628     
   24.364139563270413     
   23.981481294104011     
   23.407002968087731     
   21.100682214102388     
   22.504643918095876     
   23.092640958821399     
   22.628676834133135     
   22.382921774669398     
   21.217567265943924     
   21.432755837679714     
   22.030197413049386     
   21.838867551140158     
   21.558446915331505     
   20.476991318506013     
   21.121726906021209     
   21.404757532405029     
   21.182716036877530     
   21.065014918062683     
   20.525175531631213     
   20.629561032177453     
   20.900546855340377     
   20.809327623782131     
   20.681666523855188     
   20.194849596006101     
   20.479699896678110     
   20.609547192718285     
   20.510114154635325     
   20.455608596182149     
   20.219387514146824     
   20.261143940079037     
   20.381850525295270     