# vtk DataFile Version 2.0
 temperature
 ASCII
 DATASET UNSTRUCTURED_GRID
 POINTS         773  double
   0.0000000000000000        0.0000000000000000        0.0000000000000000     
   3.5000000000000000        0.0000000000000000        0.0000000000000000     
   3.5000000000000000        40.000000000000000        0.0000000000000000     
   0.0000000000000000        40.000000000000000        0.0000000000000000     
  0.43750000000000000        0.0000000000000000        0.0000000000000000     
  0.87500000000000000        0.0000000000000000        0.0000000000000000     
   1.3125000000000000        0.0000000000000000        0.0000000000000000     
   1.7500000000000000        0.0000000000000000        0.0000000000000000     
   2.1875000000000000        0.0000000000000000        0.0000000000000000     
   2.6250000000000000        0.0000000000000000        0.0000000000000000     
   3.0625000000000000        0.0000000000000000        0.0000000000000000     
   3.5000000000000000       0.50000000000000000        0.0000000000000000     
   3.5000000000000000        1.0000000000000000        0.0000000000000000     
   3.5000000000000000        1.5000000000000000        0.0000000000000000     
   3.5000000000000000        2.0000000000000000        0.0000000000000000     
   3.5000000000000000        2.5000000000000000        0.0000000000000000     
   3.5000000000000000        3.0000000000000000        0.0000000000000000     
   3.5000000000000000        3.5000000000000000        0.0000000000000000     
   3.5000000000000000        4.0000000000000000        0.0000000000000000     
   3.5000000000000000        4.5000000000000000        0.0000000000000000     
   3.5000000000000000        5.0000000000000000        0.0000000000000000     
   3.5000000000000000        5.5000000000000000        0.0000000000000000     
   3.5000000000000000        6.0000000000000000        0.0000000000000000     
   3.5000000000000000        6.5000000000000000        0.0000000000000000     
   3.5000000000000000        7.0000000000000000        0.0000000000000000     
   3.5000000000000000        7.5000000000000000        0.0000000000000000     
   3.5000000000000000        8.0000000000000000        0.0000000000000000     
   3.5000000000000000        8.5000000000000000        0.0000000000000000     
   3.5000000000000000        9.0000000000000000        0.0000000000000000     
   3.5000000000000000        9.5000000000000000        0.0000000000000000     
   3.5000000000000000        10.000000000000000        0.0000000000000000     
   3.5000000000000000        10.500000000000000        0.0000000000000000     
   3.5000000000000000        11.000000000000000        0.0000000000000000     
   3.5000000000000000        11.500000000000000        0.0000000000000000     
   3.5000000000000000        12.000000000000000        0.0000000000000000     
   3.5000000000000000        12.500000000000000        0.0000000000000000     
   3.5000000000000000        13.000000000000000        0.0000000000000000     
   3.5000000000000000        13.500000000000000        0.0000000000000000     
   3.5000000000000000        14.000000000000000        0.0000000000000000     
   3.5000000000000000        14.500000000000000        0.0000000000000000     
   3.5000000000000000        15.000000000000000        0.0000000000000000     
   3.5000000000000000        15.500000000000000        0.0000000000000000     
   3.5000000000000000        16.000000000000000        0.0000000000000000     
   3.5000000000000000        16.500000000000000        0.0000000000000000     
   3.5000000000000000        17.000000000000000        0.0000000000000000     
   3.5000000000000000        17.500000000000000        0.0000000000000000     
   3.5000000000000000        18.000000000000000        0.0000000000000000     
   3.5000000000000000        18.500000000000000        0.0000000000000000     
   3.5000000000000000        19.000000000000000        0.0000000000000000     
   3.5000000000000000        19.500000000000000        0.0000000000000000     
   3.5000000000000000        20.000000000000000        0.0000000000000000     
   3.5000000000000000        20.500000000000000        0.0000000000000000     
   3.5000000000000000        21.000000000000000        0.0000000000000000     
   3.5000000000000000        21.500000000000000        0.0000000000000000     
   3.5000000000000000        22.000000000000000        0.0000000000000000     
   3.5000000000000000        22.500000000000000        0.0000000000000000     
   3.5000000000000000        23.000000000000000        0.0000000000000000     
   3.5000000000000000        23.500000000000000        0.0000000000000000     
   3.5000000000000000        24.000000000000000        0.0000000000000000     
   3.5000000000000000        24.500000000000000        0.0000000000000000     
   3.5000000000000000        25.000000000000000        0.0000000000000000     
   3.5000000000000000        25.500000000000000        0.0000000000000000     
   3.5000000000000000        26.000000000000000        0.0000000000000000     
   3.5000000000000000        26.500000000000000        0.0000000000000000     
   3.5000000000000000        27.000000000000000        0.0000000000000000     
   3.5000000000000000        27.500000000000000        0.0000000000000000     
   3.5000000000000000        28.000000000000000        0.0000000000000000     
   3.5000000000000000        28.500000000000000        0.0000000000000000     
   3.5000000000000000        29.000000000000000        0.0000000000000000     
   3.5000000000000000        29.500000000000000        0.0000000000000000     
   3.5000000000000000        30.000000000000000        0.0000000000000000     
   3.5000000000000000        30.500000000000000        0.0000000000000000     
   3.5000000000000000        31.000000000000000        0.0000000000000000     
   3.5000000000000000        31.500000000000000        0.0000000000000000     
   3.5000000000000000        32.000000000000000        0.0000000000000000     
   3.5000000000000000        32.500000000000000        0.0000000000000000     
   3.5000000000000000        33.000000000000000        0.0000000000000000     
   3.5000000000000000        33.500000000000000        0.0000000000000000     
   3.5000000000000000        34.000000000000000        0.0000000000000000     
   3.5000000000000000        34.500000000000000        0.0000000000000000     
   3.5000000000000000        35.000000000000000        0.0000000000000000     
   3.5000000000000000        35.500000000000000        0.0000000000000000     
   3.5000000000000000        36.000000000000000        0.0000000000000000     
   3.5000000000000000        36.500000000000000        0.0000000000000000     
   3.5000000000000000        37.000000000000000        0.0000000000000000     
   3.5000000000000000        37.500000000000000        0.0000000000000000     
   3.5000000000000000        38.000000000000000        0.0000000000000000     
   3.5000000000000000        38.500000000000000        0.0000000000000000     
   3.5000000000000000        39.000000000000000        0.0000000000000000     
   3.5000000000000000        39.500000000000000        0.0000000000000000     
   3.0625000000000000        40.000000000000000        0.0000000000000000     
   2.6250000000000000        40.000000000000000        0.0000000000000000     
   2.1875000000000000        40.000000000000000        0.0000000000000000     
   1.7500000000000000        40.000000000000000        0.0000000000000000     
   1.3125000000000000        40.000000000000000        0.0000000000000000     
  0.87500000000000000        40.000000000000000        0.0000000000000000     
  0.43750000000000000        40.000000000000000        0.0000000000000000     
   0.0000000000000000        39.500000000000000        0.0000000000000000     
   0.0000000000000000        39.000000000000000        0.0000000000000000     
   0.0000000000000000        38.500000000000000        0.0000000000000000     
   0.0000000000000000        38.000000000000000        0.0000000000000000     
   0.0000000000000000        37.500000000000000        0.0000000000000000     
   0.0000000000000000        37.000000000000000        0.0000000000000000     
   0.0000000000000000        36.500000000000000        0.0000000000000000     
   0.0000000000000000        36.000000000000000        0.0000000000000000     
   0.0000000000000000        35.500000000000000        0.0000000000000000     
   0.0000000000000000        35.000000000000000        0.0000000000000000     
   0.0000000000000000        34.500000000000000        0.0000000000000000     
   0.0000000000000000        34.000000000000000        0.0000000000000000     
   0.0000000000000000        33.500000000000000        0.0000000000000000     
   0.0000000000000000        33.000000000000000        0.0000000000000000     
   0.0000000000000000        32.500000000000000        0.0000000000000000     
   0.0000000000000000        32.000000000000000        0.0000000000000000     
   0.0000000000000000        31.500000000000000        0.0000000000000000     
   0.0000000000000000        31.000000000000000        0.0000000000000000     
   0.0000000000000000        30.500000000000000        0.0000000000000000     
   0.0000000000000000        30.000000000000000        0.0000000000000000     
   0.0000000000000000        29.500000000000000        0.0000000000000000     
   0.0000000000000000        29.000000000000000        0.0000000000000000     
   0.0000000000000000        28.500000000000000        0.0000000000000000     
   0.0000000000000000        28.000000000000000        0.0000000000000000     
   0.0000000000000000        27.500000000000000        0.0000000000000000     
   0.0000000000000000        27.000000000000000        0.0000000000000000     
   0.0000000000000000        26.500000000000000        0.0000000000000000     
   0.0000000000000000        26.000000000000000        0.0000000000000000     
[...]
 CELL_DATA        1368
 SCALARS T double
 LOOKUP_TABLE default
   20.732963187788009     
   24.683296996847464     
   1676.0284828369920     
   43.492967979667469     
   20.000000342464631     
   21.474964588310694     
   1279.1724000889642     
   21.353482545709063     
   20.087552785559264     
   21.122818929622671     
   20.139480590363931     
   37.478664164822895     
   21.057912166207018     
   45.649169701029123     
   38.735198271246773     
   1212.1071494770031     
   1677.1714054665806     
   20.296073069060075     
   20.266605990158794     
   22.280626235400799     
   20.219492888722453     
   20.013150346572097     
   1736.8877106045522     
   20.022132228528292     
   20.623993561083370     
   24.645145841020728     
   20.199342514001472     
   21.729491390170367     
   20.837384219072494     
   20.102346685905779     
   22.257313853740374     
   20.000000625985539     
   24.078506520194971     
   25.026747154388911     
   24.943890997329930     
   20.000000525419736     
   20.469917321962150     
   20.049648443247015     
   20.162084440313116     
   20.044131565025896     
   20.031519638039452     
   21.037633361455690     
   20.035567212464223     
   44.384940330443953     
   20.352159325483271     
   437.99571313769860     
   430.23343263820624     
   20.889787826237828     
   21.159751579481622     
   696.77050041711834     
   701.42860360847033     
   20.116058797109041     
   20.470617439516730     
   20.000000492611605     
   1708.5070645877090     
   20.000000426551455     
   20.000001224668349     
   20.012033005608789     
   20.006687158477391     
   20.015848071130652     
   20.000001592023366     
   42.859505565989217     
   20.025743890213310     
   20.000003207529502     
   21.963464163680214     
   22.478580785676272     
   20.080746101752197     
   22.386143350254986     
   20.165184674558340     
   20.221212740035778     
   20.000001004719003     
   1676.7944586577969     
   20.000001957598815     
   20.199454554521115     
   20.059460305622355     
   20.082933946981989     
   20.000004790452934     
   20.000012231629899     
   20.000000810922948     
   413.88136824381252     
   20.018084071701562     
   20.006011126000224     
   252.59866656664977     
   20.003440499304666     
   156.56918947523206     
   20.397722783327993     
   20.520143566595401     
   409.97801784091064     
   20.009918004009641     
   860.78720497534414     
   20.025558018201689     
   20.035588229182366     
   63.710688320530949     
   20.000044417174561     
   804.63651826124749     
   20.001394354970980     
   43.631208140939101     
   20.000017924496976     
   20.001684050171423     
   20.000006209888294     
   250.89168828477889     
   20.000003943658108     
   216.78771268536360     
   220.01668680770592     
   20.031763072504670     
   20.008343611561145     
   20.000000788709649     
   20.079522309365359     
   20.000000654183786     
   20.000007461997459     
   27.881689431900401     
   523.96478304769926     
   26.884928549474786     
   20.000769684471159     
   20.000002554261183     
   20.000000344022151     
   136.51060265162471     
   23.361546544415550     
   138.27910737034529     
   20.000325620435778     
   20.000003971151138     
   20.000690462334653     
   20.005880033499459     
   155.54756253571571     
   21.580611710465575     
   311.45284324381453     
   20.067574007566769     
   20.089942185008006     
   20.004308719818106     
   20.514296186305874     
   20.000001011019311     
   20.000959651645680     
   534.53909363578873     
   20.708847223613020     
   20.000014895920611     
   20.000064321410981     
   20.302996647315616     
   87.965830920800158     
   1320.7952548306525     
   89.098369325475758     
   1008.4440641391939     
   483.02146757789671     
   192.71859126517026     
   20.001118221229291     
   20.003004300513602     
   20.000252026537112     
   505.87395224973250     
   20.002087392009059     
   20.000009818754421     
   20.000015026200920     
   20.000318646700169     
   315.49937982376656     
   20.002883499291357     
   58.566889640747291     
   59.095468455077551     
   20.000023012515861     
   20.000218503555107     
   119.94621329855879     
   20.004701750122230     
   20.000053434930642     
   20.000027538865510     
   20.000002491472522     
   39.347086032848757     
   63.314856919599251     
   20.011796153084138     
   21.893317680524117     
   20.000054067300397     
   20.000000317170954     
   246.29900712229582     
   195.12790996901552     
   20.000545436754884     
   20.000136061427519     
   20.000035743370539     
   43.429346446885802     
   51.056339052247765     
   20.000167956605331     
   1013.2544920058421     
   20.392461176532638     
   121.05953066931220     
   20.000081823896618     
   164.68345832591129     
   156.28800812796848     
   36.490629872620012     
   20.000096643693972     
   33.894816726002979     
   20.000320892058586     
   20.004752462384559     
   20.006772027910582     
   57.846641162229865     
   20.000000760619621     
   261.64740116215017     
   20.067130966830671     
   25.818117028233896     
   25.803785272799907     
   29.102926041939028     
   20.000000392898276     
   581.15928470541394     
   20.000366445452549     
   20.000000676892839     
   20.000123657674095     
   26.740130706288948     
   20.000185504306383     
   104.90752849902674     
   20.002333407352644     
   20.003337446530061     
   20.000707260687523     
   99.744103033182896     
   23.555136005922069     
   20.000145065895214     
   20.000000813696804     
   20.000217548115351     
   20.000001471718832     
   24.503350554325273     
   20.000000343991879     
   20.000831251369203     
   20.000090639495347     
   20.001497641710341     
   20.002397548591908     
   20.089825941947620     
   20.000275376611533     
   23.289111921642942     
   20.000000930866417     
   20.004232947076673     
   55.650272816726428     
   20.001616381465634     
   51.548008028286738     
   20.001762141968065     
   20.000060180040396     
   20.000000530632185     
   20.000072382114318     
   20.000446454529840     
   20.000001202469313     
   21.545744749216478     
   20.000009573590926     
   22.151487545180398     
   20.000048075326518     
   20.004468092003574     
   20.000000587768838     
   20.692900929266937     
   20.005216104338327     
   32.251476901339593     
   36.714539155302994     
   327.81130050015406     
   20.784694861595892     
   52.869019373788944     
   68.631680331321277     
   1434.4569821370039     
   65.575938499563065     
   20.295910892528447     
   20.000039721522867     
   20.000017018626092     
   20.012736605603823     
   20.000478989453139     
   20.984399410001572     
   1516.1370787586586     
   20.000013417079114     
   20.000031667134966     
   20.000108295247603     
   20.014740806955064     
   20.000563691993932     
   20.000001365078766     
   741.38924241926259     
   572.51089746328933     
   20.034601072672931     
   20.006939550116353     
   20.001456914551849     
   20.430640102147265     
   20.000001414712951     
   20.039739759614072     
   1459.7161520404118     
   29.344643644651789     
   20.147003824014366     
   20.000380868773462     
   20.000475361106574     
   20.000321532560044     
   20.000001427289831     
   20.089716548182274     
   20.000001297547943     
   1382.1563059156176     
   1188.8470412727593     
   20.000000259715335     
   1252.4024659489198     
   20.000001556186021     
   20.102249839451058     
   1367.1370470376241     
   20.006125065540644     
   30.683091033155154     
   867.80738447668455     
   1389.9806116970540     
   20.000005026094275     
   24.643486617578979     
   20.000000521099398     
   20.000026152749367     
   20.000354968633967     
   20.000527380372134     
   20.000011044490943     
   20.000000755454852     
   20.000005549192643     
   20.000000622379741     
   920.88204037986759     
   22.220434672708606     
   20.000020629493065     
   658.42576263542753     
   20.000000545801637     
   20.000008635293231     
   21.016999008142758     
   20.445123203006119     
   20.000000332654562     
   20.000000483241806     
   1176.7391745812215     
   20.000001003387457     
   1289.5759439645119     
   1070.2960461699201     
   20.000471096263610     
   20.000372862879125     
   1478.9613998979723     
   30.137421390918202     
   332.17412432252900     
   20.022903360319418     
   20.000000721894256     
   20.000000403404105     
   20.000001603309915     
   779.69629594408991     
   20.000170047145041     
   20.000001049306682     
   20.000035080043226     
   20.000145459464552     
   20.003120541041348     
   1318.5619937918646     
   763.60537926963877     
   20.000000636786680     
   20.000001291226297     
   49.181997330508089     
   1199.8399822292592     
   20.000160640967927     
   20.000002258641480     
   1212.6455665591063     
   1289.2692524590550     
   20.003621372097761     
   20.001033462471351     
   1006.9476225494142     
   20.000001096821933     
   20.000005228337788     
   20.000002936515063     
   20.000003342542371     
   911.82795468702386     
   20.001209012027129     
   20.000004578684649     
   20.000005972295600     
   29.722299693263047     
   27.100395653561904     
   20.000002485482892     
   20.000000862337259     
   20.004893584396168     
   20.000002036691367     
   1140.5929510131309     
   20.000003873508899     
   1038.0226819064653     
   20.000002056835694     
   859.30962063232380     
   20.000000826216777     
   974.20632926088956     
   777.55470180918553     
   1032.0472551465746     
   1207.1448724044014     
   1035.3683012639267     
   20.000001890662610     
   20.000000909986124     
   20.000001589656105     
   871.46044132172460     
   838.82454527481514     
   761.16338655415575     
   733.64441528566647     
   1118.1739765845280     
   662.01800580867666     
   20.000147333212599     
   20.000002138784197     
   20.000007831679834     
   20.000007167826606     
   1232.2789729447302     
   887.86171285314731     
   891.61073587960163     
   965.10330246027888     
   628.39360561072965     
   719.50842153637166     
   20.000007886158354     
   20.000006224364157     
   20.000021868459381     
   560.26485394827444     
   830.12601783208481     
   558.08195887640898     
   20.000009247840843     
   20.000033221715618     
   20.000044241052340     
   627.46742453987247     
   469.67173849426632     
   763.46844309932339     
   20.000019127059016     
   610.37252377992752     
   649.34047334063678     
   20.000008081420994     
   20.000028595519730     
   658.45167395349949     
   20.000066722006355     
   20.000029014164824     
   535.95337333359828     
   20.000050341069496     
   20.000029091884045     
   20.000023178056630     
   20.000076334728007     
   562.92204835956932     
   455.77035125690935     
   479.11052141143551     
   20.000009340818465     
   386.88715642732058     
   408.36789403919499     
   20.000153788174025     
   20.000188257084716     
   20.000012527489986     
   20.000184973294921     
   712.07781869192274     
   20.000410052270269     
   20.000489777091463     
   20.000606995941105     
   20.000219635909897     
   298.18644634223955     
   20.000342273461808     
   20.000279518975780     
   401.74207000202830     
   20.000613928625590     
   20.000414867234497     
   20.000014294564838     
   20.000799729685063     
   20.000694312659249     
   20.000535740833815     
   20.001296216334659     
   20.000506342256742     
   20.002713294862502     
   20.003201497005932     
   20.008026057374970     
   20.005618538533323     
   20.004726587493309     
   20.006731168315532     
   20.011185276942008     
   20.030597285088906     
   20.013444280389539     
   20.011293503779189     
   20.022312946954873     
   20.015917851240822     
   20.079891624942348     
   20.036476637277264     
   20.030886868285126     
   20.059183023724934     
   20.042858006045432     
   20.042552730316526     
   20.018846554020691     
   20.058217295766429     
   20.046219129478644     
   20.034004642306492     
   20.030894678598678     
   20.198550695042503     
   20.094472396215757     
   20.080628675681073     
   20.149886998766860     
   20.110159196174109     
   20.050346773396562     
   389.70920537198009     
   20.472900459055179     
   20.233818409738447     
   20.200776075426344     
   20.361184413192760     
   20.269357134427199     
   20.128415414081687     
   20.344154381057429     
   20.271251557542204     
   20.189133020443361     
   20.253118108451531     
   21.076571322319602     
   20.552242674267266     
   20.477987553503180     
   20.834327527392414     
   20.633046336912109     
   20.312956469656019     
   20.206143667624730     
   22.346973669355606     
   21.247415435999400     
   21.087831826286511     
   21.843977808395291     
   21.419798592822858     
   20.727988803627717     
   21.642278780920442     
   21.334371794516283     
   20.968506099885797     
   21.259204693376798     
   24.904851814078935     
   22.698613562258263     
   22.370648004062286     
   23.908913447062559     
   23.045513290945316     
   21.620641288041046     
   240.27573903172197     
   275.22333171582454     
   251.05292653117002     
   21.040398748226668     
   26.261663461042112     
   134.10455874911102     
   291.82800712741880     
   145.99652603885741     
   132.17543570259775     
   149.60980338268118     
   29.842430542092028     
   272.83847405396250     
   240.55387779643976     
   292.82782973429551     
   25.598850947596727     
   24.952837289470413     
   74.134259932808078     
   234.68624206755416     
   125.14868512591237     
   69.827849422452644     
   149.39935614055929     
   23.457181525863604     
   113.15502428980606     
   237.59595944773329     
   27.091962318451046     
   27.954719872160133     
   325.22465068387208     
   201.34460867009281     
   180.80917394642557     
   127.32522909824843     
   42.573171723643590     
   107.55803915798745     
   35.382357089565666     
   34.057492484786167     
   81.814772763081734     
   43.860869031013628     
   331.95500589319744     
   31.148049272372091     
   29.933138735265409     
   248.77914087274348     
   35.292729525357558     
   239.11385508556677     
   84.035312748963662     
   156.62594790846828     
   42.423095216953627     
   174.19971402016486     
   174.30095989116111     
   170.73314725863560     
   233.78305117225139     
   32.343414937796886     
   154.83488694171530     
   97.978976531889543     
   97.540971858440670     
   296.77571283353069     
   94.692491248174719     
   329.85412885285405     
   63.153874305197611     
   70.744023626357929     
   81.099852244681173     
   212.41412942883474     
   343.26426505151829     
   47.626817719246318     
   184.37870094731920     
   270.93110484997004     
   20.001128260109606     
   74.006435586185646     
   79.217882284431951     
   316.53210526160194     
   20.002979580975847     
   20.001455526291512     
   63.310210891501882     
   33.913693018221068     
   85.588726668731141     
   134.69292441574271     
   441.72779624217202     
   319.35271538407756     
   233.39626692693446     
   265.32340925034720     
   145.97867118277537     
   94.346391776785453     
   62.903502252635796     
   44.139017100417078     
   33.190667635223186     
   26.912154137691527     
   23.521445374154442     
   21.713764395625706     
   20.804525029423388     
   20.360327602897005     
   20.154557877992101     
   20.062470464108671     
   20.024866204289957     
   20.009208361176501     
   20.003311340237371     
   20.002325576370168     
   20.001620609613383     
   20.002087558364128     
   20.000777512271874     
   20.001008369097022     
   20.000249522250972     
   20.000075735588730     
   20.000021868217839     
   20.000006042158191     
   20.001313755789248     
   20.000005064996639     
   20.000019001486447     
   20.000067786253538     
   20.000230956594589     
   20.000747007876235     
   20.001588931347417     
   20.002292927730089     
   20.001907197074956     
   20.003301668775869     
   20.002754920365966     
   20.009570684856556     
   20.026370951871776     
   20.069349932064618     
   20.174199566656046     
   20.417830132260452     
   20.957635442586778     
   22.101146655994789     
   24.418660202234239     
   28.920926255808489     
   37.330691055004280     
   52.509316163673972     
   79.120252193869348     
   91.677724559453921     
   84.692873283259928     
   106.79235671051335     
   124.42119573164464     
   199.83677516093289     
   322.86980054279235     
   520.37461903534791     
   91.918557172799098     
   204.21806368695417     
   215.53408168857510     
   149.07471515475984     
   20.000901001384129     
   106.86462359470556     
   280.72664322301688     
   60.990483686876125     
   115.27501704688004     
   46.656655621929204     
   20.001088606180854     
   52.883724174245195     
   99.039656342553471     
   253.32967537570889     
   64.225607558636653     
   347.81043607483105     
   43.469782671042175     
   70.448800280693362     
   157.41577286980956     
   114.59199149197941     
   56.746288457647864     
   109.17727673990467     
   48.056100802833164     
   49.809195966358239     
   44.363783303552644     
   61.252883249894602     
   53.902270251753855     
   128.02247756292721     
   280.80532904730347     
   169.96111085644173     
   114.38939873018715     
   48.925047889358332     
   34.986947256126420     
   60.028363474972430     
   109.50886838994914     
   72.690219731236439     
   55.462641272697965     
   68.860061237461593     
   39.018225805846811     
   94.018234540700007     
   41.636263558889688     
   42.289954084529427     
   35.818669634548094     
   39.653789739871399     
   38.240537761031291     
   146.38760923885619     
   42.524066938462624     
   148.74779783675376     
   32.334163513441212     
   37.593363265576173     
   93.193013418154933     
   34.657885187515959     
   26.076817625613877     
   32.497561507780262     
   94.705091134961620     
   85.290409238021709     
   98.812450175942459     
   31.683595417990194     
   27.655325386110533     
   182.24843237323665     
   26.496748138141452     
   213.56149091350423     
   30.162820184899463     
   29.468021170021629     
   22.974191096622395     
   26.528084669125377     
   28.107655318546037     
   204.59956196639689     
   26.119095784351590     
   27.515025909492270     
   26.241138092458797     
   26.466904285893143     
   23.207693913176108     
   25.938549839999993     
   23.755344107574114     
   25.133456314344475     
   24.710816929034287     
   24.056421455410142     
   21.382819749365691     
   23.040271753092590     
   23.705832186925239     
   23.170694207137110     
   22.892573894030910     
   21.518888908804236     
   21.775479841553036     
   22.481163862892807     
   22.262166456039587     
   21.930728110634803     
   20.627162252255214     
   21.419878983802651     
   21.752757508980402     
   21.486651649189447     
   21.348145816447797     
   20.685534150768170     
   20.815354857271956     
   21.148518396115655     
   21.039766828552231     
   20.882515495854779     
   20.269250117512485     
   20.635907567938560     
   20.795386965405577     
   20.670998208696261     
   20.603982861484582     
   20.300502089741350     
   20.354937546716279     
   20.510375017508398     