# vtk DataFile Version 2.0
 temperature
 ASCII
 DATASET UNSTRUCTURED_GRID
 POINTS         773  double
   0.0000000000000000        0.0000000000000000        0.0000000000000000     
   3.5000000000000000        0.0000000000000000        0.0000000000000000     
   3.5000000000000000        40.000000000000000        0.0000000000000000     
   0.0000000000000000        40.000000000000000        0.0000000000000000     
  0.43750000000000000        0.0000000000000000        0.0000000000000000     
  0.87500000000000000        0.0000000000000000        0.0000000000000000     
   1.3125000000000000        0.0000000000000000        0.0000000000000000     
   1.7500000000000000        0.0000000000000000        0.0000000000000000     
   2.1875000000000000        0.0000000000000000        0.0000000000000000     
   2.6250000000000000        0.0000000000000000        0.0000000000000000     
   3.0625000000000000        0.0000000000000000        0.0000000000000000     
   3.5000000000000000       0.50000000000000000        0.0000000000000000     
   3.5000000000000000        1.0000000000000000        0.0000000000000000     
   3.5000000000000000        1.5000000000000000        0.0000000000000000     
   3.5000000000000000        2.0000000000000000        0.0000000000000000     
   3.5000000000000000        2.5000000000000000        0.0000000000000000     
   3.5000000000000000        3.0000000000000000        0.0000000000000000     
   3.5000000000000000        3.5000000000000000        0.0000000000000000     
   3.5000000000000000        4.0000000000000000        0.0000000000000000     
   3.5000000000000000        4.5000000000000000        0.0000000000000000     
   3.5000000000000000        5.0000000000000000        0.0000000000000000     
   3.5000000000000000        5.5000000000000000        0.0000000000000000     
   3.5000000000000000        6.0000000000000000        0.0000000000000000     
   3.5000000000000000        6.5000000000000000        0.0000000000000000     
   3.5000000000000000        7.0000000000000000        0.0000000000000000     
   3.5000000000000000        7.5000000000000000        0.0000000000000000     
   3.5000000000000000        8.0000000000000000        0.0000000000000000     
   3.5000000000000000        8.5000000000000000        0.0000000000000000     
   3.5000000000000000        9.0000000000000000        0.0000000000000000     
   3.5000000000000000        9.5000000000000000        0.0000000000000000     
   3.5000000000000000        10.000000000000000        0.0000000000000000     
   3.5000000000000000        10.500000000000000        0.0000000000000000     
   3.5000000000000000        11.000000000000000        0.0000000000000000     
   3.5000000000000000        11.500000000000000        0.0000000000000000     
   3.5000000000000000        12.000000000000000        0.0000000000000000     
   3.5000000000000000        12.500000000000000        0.0000000000000000     
   3.5000000000000000        13.000000000000000        0.0000000000000000     
   3.5000000000000000        13.500000000000000        0.0000000000000000     
   3.5000000000000000        14.000000000000000        0.0000000000000000     
   3.5000000000000000        14.500000000000000        0.0000000000000000     
   3.5000000000000000        15.000000000000000        0.0000000000000000     
   3.5000000000000000        15.500000000000000        0.0000000000000000     
   3.5000000000000000        16.000000000000000        0.0000000000000000     
   3.5000000000000000        16.500000000000000        0.0000000000000000     
   3.5000000000000000        17.000000000000000        0.0000000000000000     
   3.5000000000000000        17.500000000000000        0.0000000000000000     
   3.5000000000000000        18.000000000000000        0.0000000000000000     
   3.5000000000000000        18.500000000000000        0.0000000000000000     
   3.5000000000000000        19.000000000000000        0.0000000000000000     
   3.5000000000000000        19.500000000000000        0.0000000000000000     
   3.5000000000000000        20.000000000000000        0.0000000000000000     
   3.5000000000000000        20.500000000000000        0.0000000000000000     
   3.5000000000000000        21.000000000000000        0.0000000000000000     
   3.5000000000000000        21.500000000000000        0.0000000000000000     
   3.5000000000000000        22.000000000000000        0.0000000000000000     
   3.5000000000000000        22.500000000000000        0.0000000000000000     
   3.5000000000000000        23.000000000000000        0.0000000000000000     
   3.5000000000000000        23.500000000000000        0.0000000000000000     
   3.5000000000000000        24.000000000000000        0.0000000000000000     
   3.5000000000000000        24.500000000000000        0.0000000000000000     
   3.5000000000000000        25.000000000000000        0.0000000000000000     
   3.5000000000000000        25.500000000000000        0.0000000000000000     
   3.5000000000000000        26.000000000000000        0.0000000000000000     
   3.5000000000000000        26.500000000000000        0.0000000000000000     
   3.5000000000000000        27.000000000000000        0.0000000000000000     
   3.5000000000000000        27.500000000000000        0.0000000000000000     
   3.5000000000000000        28.000000000000000        0.0000000000000000     
   3.5000000000000000        28.500000000000000        0.0000000000000000     
   3.5000000000000000        29.000000000000000        0.0000000000000000     
   3.5000000000000000        29.500000000000000        0.0000000000000000     
   3.5000000000000000        30.000000000000000        0.0000000000000000     
   3.5000000000000000        30.500000000000000        0.0000000000000000     
   3.5000000000000000        31.000000000000000        0.0000000000000000     
   3.5000000000000000        31.500000000000000        0.0000000000000000     
   3.5000000000000000        32.000000000000000        0.0000000000000000     
   3.5000000000000000        32.500000000000000        0.0000000000000000     
   3.5000000000000000        33.000000000000000        0.0000000000000000     
   3.5000000000000000        33.500000000000000        0.0000000000000000     
   3.5000000000000000        34.000000000000000        0.0000000000000000     
   3.5000000000000000        34.500000000000000        0.0000000000000000     
   3.5000000000000000        35.000000000000000        0.0000000000000000     
   3.5000000000000000        35.500000000000000        0.0000000000000000     
   3.5000000000000000        36.000000000000000        0.0000000000000000     
   3.5000000000000000        36.500000000000000        0.0000000000000000     
   3.5000000000000000        37.000000000000000        0.0000000000000000     
   3.5000000000000000        37.500000000000000        0.0000000000000000     
   3.5000000000000000        38.000000000000000        0.0000000000000000     
   3.5000000000000000        38.500000000000000        0.0000000000000000     
   3.5000000000000000        39.000000000000000        0.0000000000000000     
   3.5000000000000000        39.500000000000000        0.0000000000000000     
   3.0625000000000000        40.000000000000000        0.0000000000000000     
   2.6250000000000000        40.000000000000000        0.0000000000000000     
   2.1875000000000000        40.000000000000000        0.0000000000000000     
   1.7500000000000000        40.000000000000000        0.0000000000000000     
   1.3125000000000000        40.000000000000000        0.0000000000000000     
  0.87500000000000000        40.000000000000000        0.0000000000000000     
  0.43750000000000000        40.000000000000000        0.0000000000000000     
   0.0000000000000000        39.500000000000000        0.0000000000000000     
   0.0000000000000000        39.000000000000000        0.0000000000000000     
   0.0000000000000000        38.500000000000000        0.0000000000000000     
   0.0000000000000000        38.000000000000000        0.0000000000000000     
   0.0000000000000000        37.500000000000000        0.0000000000000000     
   0.0000000000000000        37.000000000000000        0.0000000000000000     
   0.0000000000000000        36.500000000000000        0.0000000000000000     
   0.0000000000000000        36.000000000000000        0.0000000000000000     
   0.0000000000000000        35.500000000000000        0.0000000000000000     
   0.0000000000000000        35.000000000000000        0.0000000000000000     
   0.0000000000000000        34.500000000000000        0.0000000000000000     
   0.0000000000000000        34.000000000000000        0.0000000000000000     
   0.0000000000000000        33.500000000000000        0.0000000000000000     
   0.0000000000000000        33.000000000000000        0.0000000000000000     
   0.0000000000000000        32.500000000000000        0.0000000000000000     
   0.0000000000000000        32.000000000000000        0.0000000000000000     
   0.0000000000000000        31.500000000000000        0.0000000000000000     
   0.0000000000000000        31.000000000000000        0.0000000000000000     
   0.0000000000000000        30.500000000000000        0.0000000000000000     
   0.0000000000000000        30.000000000000000        0.0000000000000000     
   0.0000000000000000        29.500000000000000        0.0000000000000000     
   0.0000000000000000        29.000000000000000        0.0000000000000000     
   0.0000000000000000        28.500000000000000        0.0000000000000000     
   0.0000000000000000        28.000000000000000        0.0000000000000000     
   0.0000000000000000        27.500000000000000        0.0000000000000000     
   0.0000000000000000        27.000000000000000        0.0000000000000000     
   0.0000000000000000        26.500000000000000        0.0000000000000000     
   0.0000000000000000        26.000000000000000        0.0000000000000000     
[...]
 CELL_DATA        1368
 SCALARS T double
 LOOKUP_TABLE default
   20.143295674143900     
   21.552386482226030     
   1668.5318820033699     
   34.001506051299252     
   20.000000000136129     
   20.352238213370878     
   1272.5944022933547     
   20.307827998909115     
   20.007869178661313     
   20.243821243417653     
   20.014714686407455     
   29.111524224245038     
   20.208510531289331     
   35.243258107265760     
   30.000007463532558     
   1205.3809184705569     
   1669.4945313509982     
   20.039304714585455     
   20.033314211151403     
   20.590902746245256     
   20.026010468918944     
   20.000561384860205     
   1730.9854038182216     
   20.001135203945442     
   20.118007859605154     
   21.611704508002610     
   20.021070086826743     
   20.429728478482843     
   20.163787462066225     
   20.009580070501780     
   20.614600758550917     
   20.000000000317790     
   21.303925143343712     
   21.722248818700727     
   21.764770740932260     
   20.000000000247585     
   20.068704183933228     
   20.003312703578899     
   20.017147393068054     
   20.002750988314357     
   20.001618840295198     
   20.214338677366179     
   20.002083907995676     
   33.856455284028556     
   20.049004676972586     
   401.52286261907460     
   394.31548219364083     
   20.166895829763138     
   20.239733945938490     
   682.61373388961692     
   685.83071556548236     
   20.011715743078284     
   20.072902673696941     
   20.000000000228813     
   1703.5285729767115     
   20.000000000187420     
   20.000000000839364     
   20.000447101133723     
   20.000218063772113     
   20.000712066013296     
   20.000000001216527     
   33.046307323393847     
   20.001324090727689     
   20.000000003273794     
   20.488731420998185     
   20.668351589501761     
   20.006019156183275     
   20.667379300176098     
   20.016490211179828     
   20.024708430498656     
   20.000000000628951     
   1670.9234761967534     
   20.000000001641236     
   20.022314809477511     
   20.004182073362799     
   20.006625657567763     
   20.000000005864813     
   20.000000021913305     
   20.000000000458137     
   376.49426179990115     
   20.000880502164581     
   20.000182617330076     
   216.42978713249070     
   20.000078659261188     
   125.32608544927386     
   20.055396219645427     
   20.080019541975997     
   372.82968671098882     
   20.000347684316374     
   848.32081683562240     
   20.001227902100855     
   20.001951824430936     
   46.069168164529010     
   20.000000136520729     
   792.40169832065135     
   20.000020330808614     
   31.910687981405509     
   20.000000038159229     
   20.000028781661165     
   20.000000008434206     
   214.99354815902393     
   20.000000004428347     
   194.71414143617838     
   196.69828265161249     
   20.001735988544070     
   20.000289751847042     
   20.000000000446200     
   20.006767255492793     
   20.000000000336648     
   20.000000010997990     
   23.278989899733897     
   491.05253562909127     
   22.381348010047400     
   20.000008934870756     
   20.000000002372403     
   20.000000000138307     
   115.98325285526141     
   20.912184453917892     
   116.81483595802565     
   20.000002320597652     
   20.000000004444740     
   20.000008010840801     
   20.000153808425662     
   124.54453154632019     
   20.328404562842120     
   275.25550224227032     
   20.004765955355044     
   20.007090734302121     
   20.000105537024258     
   20.083268072371819     
   20.000000000630855     
   20.000011992692713     
   500.82239055725807     
   20.109699590402620     
   20.000000029214366     
   20.000000233633710     
   20.034000241916910     
   70.794621366127714     
   1313.1710165015768     
   71.189904192674419     
   999.25335691973191     
   464.24430806005245     
   159.76813873139943     
   20.000015161915901     
   20.000063609117067     
   20.000001967024595     
   486.65377335926433     
   20.000038141244456     
   20.000000016075802     
   20.000000029403818     
   20.000002275833776     
   278.75128466081895     
   20.000056517719859     
   45.503582050226825     
   45.614027685271928     
   20.000000054126346     
   20.000001706708790     
   92.914966876811675     
   20.000133382734667     
   20.000000178838615     
   20.000000070149625     
   20.000000002305786     
   31.272282200676898     
   45.829897967628234     
   20.000471903525582     
   20.495338884749643     
   20.000000180748266     
   20.000000000124857     
   224.12009468596969     
   161.67142132130797     
   20.000005877449237     
   20.000000757403203     
   20.000000100523007     
   31.809710405513876     
   37.068704033317154     
   20.000001214346799     
   1003.0974830812916     
   20.058104668905987     
   93.663247509024146     
   20.000000326918016     
   142.36574652169909     
   134.94848929006466     
   27.556273689549563     
   20.000000415833629     
   26.728663601619669     
   20.000002704510862     
   20.000116062010637     
   20.000190807736562     
   43.387206033812220     
   20.000000000429328     
   238.45186066329305     
   20.005062343259748     
   22.262336691351013     
   22.238380884708956     
   23.523469839951900     
   20.000000000201105     
   563.23536173001139     
   20.000003662734272     
   20.000000000386141     
   20.000000586796105     
   22.331183387945288     
   20.000001042173405     
   85.596978415985220     
   20.000042653964226     
   20.000070594258858     
   20.000007031842411     
   81.390260284909445     
   21.124412045170768     
   20.000000739226529     
   20.000000000510340     
   20.000001311823894     
   20.000000001114397     
   21.383241343787859     
   20.000000000175540     
   20.000008895009611     
   20.000000426580634     
   20.000020284684535     
   20.000047407716387     
   20.007493202339557     
   20.000001823395998     
   20.892440919311365     
   20.000000000578687     
   20.000111686075918     
   41.713951384145730     
   20.000025452095425     
   37.331450527302202     
   20.000025699880240     
   20.000000238805626     
   20.000000000303228     
   20.000000315728087     
   20.000004065266207     
   20.000000000828681     
   20.320904656229143     
   20.000000015612851     
   20.511957177219173     
   20.000000176754185     
   20.000094724037243     
   20.000000000336005     
   20.107123374907047     
   20.000118607478885     
   25.732015996078839     
   27.648955578531591     
   300.61601636419920     
   20.146239228584843     
   40.469199178127894     
   53.490422073410173     
   1425.5422019853647     
   51.253168408771373     
   20.033194278872482     
   20.000000132567116     
   20.000000039812811     
   20.000413123254926     
   20.000004048889711     
   20.176732314669302     
   1505.8102877188869     
   20.000000028935656     
   20.000000097874349     
   20.000000558399663     
   20.000510666350444     
   20.000005138618654     
   20.000000001274234     
   718.69004351236129     
   556.25581599432735     
   20.001676127676575     
   20.000210294745891     
   20.000022984399607     
   20.056830452001638     
   20.000000001073559     
   20.002047921267508     
   1450.0582316201537     
   23.612589621048272     
   20.014605399069602     
   20.000002952715032     
   20.000005123462525     
   20.000002945418565     
   20.000000001200519     
   20.006336704069881     
   20.000000001093493     
   1366.7982034308932     
   1184.9526413241056     
   20.000000000120981     
   1238.7299660631957     
   20.000000001451529     
   20.007651990483797     
   1355.1081363267970     
   20.000172894412774     
   25.138974061491265     
   851.77096760683912     
   1377.3467691245919     
   20.000000007491785     
   21.425656065834058     
   20.000000000242899     
   20.000000073320198     
   20.000002992679047     
   20.000005238152458     
   20.000000021588900     
   20.000000000473960     
   20.000000008270799     
   20.000000000391616     
   903.38024910945194     
   20.528001333393696     
   20.000000053338027     
   635.30718814165186     
   20.000000000343686     
   20.000000015513262     
   20.182460941192208     
   20.058698623571846     
   20.000000000142645     
   20.000000000247947     
   1160.6957194890269     
   20.000000000850612     
   1278.9769373679305     
   1052.8101486839951     
   20.000004662278762     
   20.000003427817813     
   1465.9711543824837     
   24.792941384550250     
   305.87234150811929     
   20.001097739605839     
   20.000000000413007     
   20.000000000229974     
   20.000000001221903     
   759.30622788202504     
   20.000001128149254     
   20.000000000724711     
   20.000000098514789     
   20.000000885282471     
   20.000057139967250     
   1303.7861826450930     
   754.79676016143083     
   20.000000000444246     
   20.000000000895245     
   37.594721414985173     
   1179.8151937229359     
   20.000000975602820     
   20.000000002309449     
   1199.8030519570993     
   1271.4319550182895     
   20.000070967707288     
   20.000012014515658     
   987.13599284919417     
   20.000000000753708     
   20.000000008591989     
   20.000000003290953     
   20.000000004553620     
   890.84655604577279     
   20.000015100420629     
   20.000000006181939     
   20.000000009812954     
   24.092555396282354     
   22.920675375186040     
   20.000000003092612     
   20.000000000661341     
   20.000129069611187     
   20.000000001716693     
   1121.6280672044506     
   20.000000005806999     
   1017.3916089853097     
   20.000000002106233     
   836.12212187258740     
   20.000000000573550     
   951.19962115214025     
   753.48831341238963     
   1015.6301489914242     
   1190.4405594248869     
   1011.0971459061891     
   20.000000001583182     
   20.000000000631413     
   20.000000001637940     
   851.77092513420314     
   812.52996137557500     
   733.88989822898020     
   707.55608103442569     
   1095.9156778127974     
   635.39066574289541     
   20.000000977119150     
   20.000000002412893     
   20.000000014066316     
   20.000000011678974     
   1222.4757077273136     
   859.81442749004282     
   867.34554744652064     
   938.88525399562252     
   603.33142161446665     
   690.50541332988030     
   20.000000011766510     
   20.000000008417896     
   20.000000061924350     
   524.78040431633474     
   800.49621185458466     
   522.99301650177756     
   20.000000018272498     
   20.000000122604170     
   20.000000177837478     
   599.07409771492235     
   442.85860464798623     
   732.35574107160426     
   20.000000054164907     
   575.69886510569711     
   619.67714750860819     
   20.000000015958637     
   20.000000088395680     
   624.93020597506950     
   20.000000318180067     
   20.000000097788920     
   505.70288992696931     
   20.000000220810353     
   20.000000074979411     
   20.000000054389687     
   20.000000363963611     
   534.27776502746406     
   424.02712195012970     
   448.99473146307531     
   20.000000020261552     
   354.33687368524454     
   377.12897045654501     
   20.000000794043810     
   20.000001058775535     
   20.000000029693481     
   20.000001117239915     
   679.62111660057667     
   20.000003202004329     
   20.000004134833375     
   20.000005578075314     
   20.000001444543287     
   275.93298187121803     
   20.000002464004645     
   20.000001853080168     
   367.92553004126950     
   20.000005638764808     
   20.000003239207377     
   20.000000037041353     
   20.000010096647529     
   20.000008755684849     
   20.000006268575230     
   20.000016296287725     
   20.000004288391093     
   20.000046234742403     
   20.000058628803536     
   20.000211827453157     
   20.000128276892188     
   20.000100440986181     
   20.000165182381451     
   20.000339408240009     
   20.001392017205344     
   20.000436737639557     
   20.000342387305171     
   20.000890133413282     
   20.000554334278483     
   20.005320578390148     
   20.001769410136333     
   20.001403909243521     
   20.003484427376929     
   20.002219876168009     
   20.002831795363743     
   20.000701641731503     
   20.004390684586490     
   20.003283877696273     
   20.002133827428157     
   20.001810362782454     
   20.018869142791207     
   20.006680823141892     
   20.005364599555758     
   20.012712136873368     
   20.008284692887560     
   20.002776762852527     
   354.03312551570713     
   20.062632388632807     
   20.023527235882241     
   20.019076015079566     
   20.042986721742405     
   20.028655746174465     
   20.010242246163447     
   20.051021521639544     
   20.037996090275190     
   20.022429503820298     
   20.033515813880705     
   20.193770440151113     
   20.077103663685818     
   20.063285192909813     
   20.136083724724294     
   20.093146623139109     
   20.035221903591534     
   20.025987231938743     
   20.559678633140916     
   20.235672590838355     
   20.195725087719527     
   20.401815244350047     
   20.281514448846536     
   20.112732294112014     
   20.429485236956580     
   20.333652913986288     
   20.210290636754696     
   20.300299055314781     
   21.510178105353866     
   20.672527191951360     
   20.565073800447006     
   21.109418797977735     
   20.792737684991888     
   20.336729694502079     
   210.59457571863521     
   240.75209042784624     
   222.32880651630998     
   20.238055029376593     
   22.084618550938188     
   109.40280099089622     
   257.85900656084311     
   117.06706999841465     
   104.83650901646099     
   123.18252695665478     
   23.812301152400195     
   246.26884505290747     
   206.07350263555415     
   263.85954465874164     
   21.793792124485599     
   21.524272844107777     
   56.355086527473645     
   201.12572695711251     
   98.182365783261787     
   53.507446122525771     
   119.66405738805743     
   20.939472302029468     
   87.876230162493215     
   212.39094581968308     
   22.457891284771602     
   22.865659359056874     
   290.30623364978061     
   168.96963585037341     
   149.95774373167163     
   101.18441412965419     
   32.026890211991599     
   86.312741808678410     
   26.825933210532870     
   26.222095742108422     
   62.406706482035752     
   33.055046263867922     
   301.87059292725706     
   24.471645102643233     
   23.844967827520652     
   215.43364921009490     
   26.991910616694827     
   207.21364130096606     
   62.944931234200780     
   130.52805622853785     
   32.290502594603687     
   144.64022021714811     
   146.62463538095432     
   139.96228873647479     
   207.06340494398452     
   25.117693277357091     
   125.59072902092808     
   73.521695655271401     
   74.296233257820134     
   264.92202886638063     
   75.414102425031814     
   297.07981705402960     
   48.353823519967257     
   53.282415075423074     
   60.987043126161815     
   180.08656566196319     
   309.00327647156291     
   35.159787644462554     
   154.90115567642550     
   253.15857757378615     
   20.000017926303716     
   55.422212111533931     
   58.808203555408348     
   297.50759570815825     
   20.000068194501168     
   20.000024862072603     
   46.435803520178780     
   25.981397151903895     
   64.987364248181592     
   108.33696677939363     
   427.20399945183919     
   302.28133301350545     
   214.93190491207122     
   245.62886836737758     
   127.92860044432183     
   78.406538383327032     
   50.170515738026971     
   34.808888513016434     
   26.870885095075831     
   22.978452664676734     
   21.222542006426853     
   20.467471363238097     
   20.167775372379431     
   20.055984770315501     
   20.017475307312182     
   20.004999808108437     
   20.001378867555395     
   20.000344764113358     
   20.000081606719032     
   20.000049631198472     
   20.000029923292804     
   20.000041384827316     
   20.000010621110516     
   20.000014814812580     
   20.000002124789731     
   20.000000393723038     
   20.000000067733499     
   20.000000010923266     
   20.000016526188535     
   20.000000006272199     
   20.000000040971386     
   20.000000248663387     
   20.000001412569244     
   20.000007431218528     
   20.000021590954720     
   20.000036237245482     
   20.000027979156666     
   20.000060598130148     
   20.000047009897962     
   20.000270987174215     
   20.001123697794640     
   20.004342375117197     
   20.015645486513748     
   20.052507585436590     
   20.164203599634806     
   20.479265108198437     
   21.306686932643903     
   23.332492833164736     
   27.966162035281577     
   37.904777258178150     
   58.002009253093142     
   68.225231064110233     
   62.524914181079268     
   80.966533698125900     
   96.307524149207964     
   165.65479530243206     
   285.39123349843788     
   484.08854372047489     
   69.294467867773079     
   173.31848551615488     
   184.94804793681058     
   121.10110996029114     
   20.000009699461113     
   82.057423413454757     
   248.17135039045405     
   45.005425352695354     
   90.767467071348406     
   34.214675122147334     
   20.000012654077047     
   38.574386623912318     
   76.484530327721316     
   221.87950631674804     
   47.660542375495808     
   315.97131509580458     
   32.151902178212652     
   52.339157509516866     
   129.37866063643526     
   91.548682790473464     
   41.933784841821563     
   84.988701701635065     
   35.843117108863559     
   36.824609640293197     
   33.008934746266675     
   44.551997020960044     
   39.647360927361483     
   103.18863621228161     
   250.87794318127860     
   144.89396148326156     
   87.568373851565298     
   35.874100220055439     
   27.084859410909747     
   43.814818205531360     
   86.509970441061711     
   53.740131886646061     
   40.551054603965270     
   50.568201808370482     
   29.269583941254943     
   71.841975703393743     
   30.877991550306216     
   31.208521604893523     
   27.466109668905627     
   29.880165249400211     
   28.897537535538220     
   122.15872364363561     
   31.668063593800152     
   125.50966640924381     
   25.278887297697612     
   28.328422205618185     
   73.322398914088609     
   26.707226085238968     
   22.181320946607972     
   25.504722109231814     
   73.410478485807417     
   65.735579183705354     
   77.483640696898846     
   25.003528982830666     
   22.950633648771870     
   155.01032932344381     
   22.407708391691934     
   185.37216531092696     
   24.198695991506447     
   23.789345238176377     
   20.841057886205942     
   22.517417386615200     
   23.119056675876724     
   175.76672184422344     
   22.280242944100252     
   22.795228334437969     
   22.153999454463641     
   22.314395956382686     
   20.942052433780255     
   22.049043266012877     
   21.149347258850021     
   21.702799602072499     
   21.504414014655797     
   21.244031814511789     
   20.300147726774185     
   20.822974415378734     
   21.090325069182121     
   20.894085182322026     
   20.782931286073239     
   20.344971428775988     
   20.420829224878055     
   20.642918036082687     
   20.561873635481682     
   20.458399658226554     
   20.101806279446812     
   20.293718733132096     
   20.397556554185499     
   20.321624735759602     
   20.278823242945496     
   20.116545460749151     
   20.145723904325106     
   20.226441377844846     
   20.195622842966294     
   20.158098558478841     
   20.031876360072033     
   20.097980381722863     
   20.135507115751967     
   20.108629740878751     
   20.093055295843460     
   20.037616331814149     
   20.046667418616583     
   20.074638143641092     