# vtk DataFile Version 2.0
 temperature
 ASCII
 DATASET UNSTRUCTURED_GRID
 POINTS         773  double
   0.0000000000000000        0.0000000000000000        0.0000000000000000     
   3.5000000000000000        0.0000000000000000        0.0000000000000000     
   3.5000000000000000        40.000000000000000        0.0000000000000000     
   0.0000000000000000        40.000000000000000        0.0000000000000000     
  0.43750000000000000        0.0000000000000000        0.0000000000000000     
  0.87500000000000000        0.0000000000000000        0.0000000000000000     
   1.3125000000000000        0.0000000000000000        0.0000000000000000     
   1.7500000000000000        0.0000000000000000        0.0000000000000000     
   2.1875000000000000        0.0000000000000000        0.0000000000000000     
   2.6250000000000000        0.0000000000000000        0.0000000000000000     
   3.0625000000000000        0.0000000000000000        0.0000000000000000     
   3.5000000000000000       0.50000000000000000        0.0000000000000000     
   3.5000000000000000        1.0000000000000000        0.0000000000000000     
   3.5000000000000000        1.5000000000000000        0.0000000000000000     
   3.5000000000000000        2.0000000000000000        0.0000000000000000     
   3.5000000000000000        2.5000000000000000        0.0000000000000000     
   3.5000000000000000        3.0000000000000000        0.0000000000000000     
   3.5000000000000000        3.5000000000000000        0.0000000000000000     
   3.5000000000000000        4.0000000000000000        0.0000000000000000     
   3.5000000000000000        4.5000000000000000        0.0000000000000000     
   3.5000000000000000        5.0000000000000000        0.0000000000000000     
   3.5000000000000000        5.5000000000000000        0.0000000000000000     
   3.5000000000000000        6.0000000000000000        0.0000000000000000     
   3.5000000000000000        6.5000000000000000        0.0000000000000000     
   3.5000000000000000        7.0000000000000000        0.0000000000000000     
   3.5000000000000000        7.5000000000000000        0.0000000000000000     
   3.5000000000000000        8.0000000000000000        0.0000000000000000     
   3.5000000000000000        8.5000000000000000        0.0000000000000000     
   3.5000000000000000        9.0000000000000000        0.0000000000000000     
   3.5000000000000000        9.5000000000000000        0.0000000000000000     
   3.5000000000000000        10.000000000000000        0.0000000000000000     
   3.5000000000000000        10.500000000000000        0.0000000000000000     
   3.5000000000000000        11.000000000000000        0.0000000000000000     
   3.5000000000000000        11.500000000000000        0.0000000000000000     
   3.5000000000000000        12.000000000000000        0.0000000000000000     
   3.5000000000000000        12.500000000000000        0.0000000000000000     
   3.5000000000000000        13.000000000000000        0.0000000000000000     
   3.5000000000000000        13.500000000000000        0.0000000000000000     
   3.5000000000000000        14.000000000000000        0.0000000000000000     
   3.5000000000000000        14.500000000000000        0.0000000000000000     
   3.5000000000000000        15.000000000000000        0.0000000000000000     
   3.5000000000000000        15.500000000000000        0.0000000000000000     
   3.5000000000000000        16.000000000000000        0.0000000000000000     
   3.5000000000000000        16.500000000000000        0.0000000000000000     
   3.5000000000000000        17.000000000000000        0.0000000000000000     
   3.5000000000000000        17.500000000000000        0.0000000000000000     
   3.5000000000000000        18.000000000000000        0.0000000000000000     
   3.5000000000000000        18.500000000000000        0.0000000000000000     
   3.5000000000000000        19.000000000000000        0.0000000000000000     
   3.5000000000000000        19.500000000000000        0.0000000000000000     
   3.5000000000000000        20.000000000000000        0.0000000000000000     
   3.5000000000000000        20.500000000000000        0.0000000000000000     
   3.5000000000000000        21.000000000000000        0.0000000000000000     
   3.5000000000000000        21.500000000000000        0.0000000000000000     
   3.5000000000000000        22.000000000000000        0.0000000000000000     
   3.5000000000000000        22.500000000000000        0.0000000000000000     
   3.5000000000000000        23.000000000000000        0.0000000000000000     
   3.5000000000000000        23.500000000000000        0.0000000000000000     
   3.5000000000000000        24.000000000000000        0.0000000000000000     
   3.5000000000000000        24.500000000000000        0.0000000000000000     
   3.5000000000000000        25.000000000000000        0.0000000000000000     
   3.5000000000000000        25.500000000000000        0.0000000000000000     
   3.5000000000000000        26.000000000000000        0.0000000000000000     
   3.5000000000000000        26.500000000000000        0.0000000000000000     
   3.5000000000000000        27.000000000000000        0.0000000000000000     
   3.5000000000000000        27.500000000000000        0.0000000000000000     
   3.5000000000000000        28.000000000000000        0.0000000000000000     
   3.5000000000000000        28.500000000000000        0.0000000000000000     
   3.5000000000000000        29.000000000000000        0.0000000000000000     
   3.5000000000000000        29.500000000000000        0.0000000000000000     
   3.5000000000000000        30.000000000000000        0.0000000000000000     
   3.5000000000000000        30.500000000000000        0.0000000000000000     
   3.5000000000000000        31.000000000000000        0.0000000000000000     
   3.5000000000000000        31.500000000000000        0.0000000000000000     
   3.5000000000000000        32.000000000000000        0.0000000000000000     
   3.5000000000000000        32.500000000000000        0.0000000000000000     
   3.5000000000000000        33.000000000000000        0.0000000000000000     
   3.5000000000000000        33.500000000000000        0.0000000000000000     
   3.5000000000000000        34.000000000000000        0.0000000000000000     
   3.5000000000000000        34.500000000000000        0.0000000000000000     
   3.5000000000000000        35.000000000000000        0.0000000000000000     
   3.5000000000000000        35.500000000000000        0.0000000000000000     
   3.5000000000000000        36.000000000000000        0.0000000000000000     
   3.5000000000000000        36.500000000000000        0.0000000000000000     
   3.5000000000000000        37.000000000000000        0.0000000000000000     
   3.5000000000000000        37.500000000000000        0.0000000000000000     
   3.5000000000000000        38.000000000000000        0.0000000000000000     
   3.5000000000000000        38.500000000000000        0.0000000000000000     
   3.5000000000000000        39.000000000000000        0.0000000000000000     
   3.5000000000000000        39.500000000000000        0.0000000000000000     
   3.0625000000000000        40.000000000000000        0.0000000000000000     
   2.6250000000000000        40.000000000000000        0.0000000000000000     
   2.1875000000000000        40.000000000000000        0.0000000000000000     
   1.7500000000000000        40.000000000000000        0.0000000000000000     
   1.3125000000000000        40.000000000000000        0.0000000000000000     
  0.87500000000000000        40.000000000000000        0.0000000000000000     
  0.43750000000000000        40.000000000000000        0.0000000000000000     
   0.0000000000000000        39.500000000000000        0.0000000000000000     
   0.0000000000000000        39.000000000000000        0.0000000000000000     
   0.0000000000000000        38.500000000000000        0.0000000000000000     
   0.0000000000000000        38.000000000000000        0.0000000000000000     
   0.0000000000000000        37.500000000000000        0.0000000000000000     
   0.0000000000000000        37.000000000000000        0.0000000000000000     
   0.0000000000000000        36.500000000000000        0.0000000000000000     
   0.0000000000000000        36.000000000000000        0.0000000000000000     
   0.0000000000000000        35.500000000000000        0.0000000000000000     
   0.0000000000000000        35.000000000000000        0.0000000000000000     
   0.0000000000000000        34.500000000000000        0.0000000000000000     
   0.0000000000000000        34.000000000000000        0.0000000000000000     
   0.0000000000000000        33.500000000000000        0.0000000000000000     
   0.0000000000000000        33.000000000000000        0.0000000000000000     
   0.0000000000000000        32.500000000000000        0.0000000000000000     
   0.0000000000000000        32.000000000000000        0.0000000000000000     
   0.0000000000000000        31.500000000000000        0.0000000000000000     
   0.0000000000000000        31.000000000000000        0.0000000000000000     
   0.0000000000000000        30.500000000000000        0.0000000000000000     
   0.0000000000000000        30.000000000000000        0.0000000000000000     
   0.0000000000000000        29.500000000000000        0.0000000000000000     
   0.0000000000000000        29.000000000000000        0.0000000000000000     
   0.0000000000000000        28.500000000000000        0.0000000000000000     
   0.0000000000000000        28.000000000000000        0.0000000000000000     
   0.0000000000000000        27.500000000000000        0.0000000000000000     
   0.0000000000000000        27.000000000000000        0.0000000000000000     
   0.0000000000000000        26.500000000000000        0.0000000000000000     
   0.0000000000000000        26.000000000000000        0.0000000000000000     
[...]
 CELL_DATA        1368
 SCALARS T double
 LOOKUP_TABLE default
   20.000006416636257     
   20.001303477681759     
   1602.0759208334853     
   20.371256534067115     
   20.000000000000000     
   20.000047413850616     
   1214.6765545779692     
   20.000031621865507     
   20.000000005371689     
   20.000019471801913     
   20.000000023651527     
   20.106713379196652     
   20.000009723385162     
   20.396962773127377     
   20.135231727979207     
   1146.3171032197411     
   1601.4608055498124     
   20.000000215335906     
   20.000000131909260     
   20.000124458574600     
   20.000000077629352     
   20.000000000007685     
   1678.4860269512515     
   20.000000000040874     
   20.000004377411777     
   20.001766973817674     
   20.000000034020907     
   20.000072122623930     
   20.000007361201757     
   20.000000008190376     
   20.000171578754042     
   20.000000000000000     
   20.000891692893816     
   20.001755812992670     
   20.002292749032254     
   20.000000000000000     
   20.000000632050526     
   20.000000000470624     
   20.000000027978352     
   20.000000000273815     
   20.000000000058456     
   20.000012989408813     
   20.000000000150468     
   20.275286652285050     
   20.000000346348809     
   196.86280545685435     
   193.14106905490263     
   20.000005943689736     
   20.000014544892217     
   568.63049770262614     
   561.53030535741027     
   20.000000014877511     
   20.000000921717067     
   20.000000000000000     
   1659.1992773119985     
   20.000000000000000     
   20.000000000000000     
   20.000000000002956     
   20.000000000000814     
   20.000000000012879     
   20.000000000000000     
   20.266206045246214     
   20.000000000048317     
   20.000000000000000     
   20.000082573527916     
   20.000176689053898     
   20.000000001527415     
   20.000218448877938     
   20.000000019702281     
   20.000000053699917     
   20.000000000000000     
   1618.7603285321045     
   20.000000000000000     
   20.000000048905846     
   20.000000000786649     
   20.000000002427647     
   20.000000000000000     
   20.000000000000000     
   20.000000000000000     
   174.74598824037673     
   20.000000000024080     
   20.000000000000586     
   71.064949321037901     
   20.000000000000036     
   34.569185382232796     
   20.000000393013710     
   20.000000973299482     
   172.73232712979856     
   20.000000000001702     
   744.25777105827478     
   20.000000000031420     
   20.000000000099377     
   20.689857126776090     
   20.000000000000000     
   690.75787626030967     
   20.000000000000000     
   20.113408031205061     
   20.000000000000000     
   20.000000000000000     
   20.000000000000000     
   70.709439326737652     
   20.000000000000000     
   86.019862206970686     
   84.253216073181790     
   20.000000000086910     
   20.000000000001382     
   20.000000000000000     
   20.000000003479531     
   20.000000000000000     
   20.000000000000000     
   20.010192236522133     
   283.69817485119626     
   20.002530598641847     
   20.000000000000000     
   20.000000000000000     
   20.000000000000000     
   41.091296697660603     
   20.000246439196218     
   40.296861708000137     
   20.000000000000000     
   20.000000000000000     
   20.000000000000000     
   20.000000000000124     
   34.469721559200998     
   20.000020171889666     
   106.56544142697155     
   20.000000000906432     
   20.000000002433609     
   20.000000000000142     
   20.000001349720463     
   20.000000000000000     
   20.000000000000000     
   288.56199561595929     
   20.000001350868061     
   20.000000000000000     
   20.000000000000000     
   20.000000074420594     
   25.737016025979216     
   1246.2225886099368     
   25.438320387030537     
   920.14176877990690     
   329.23452443592549     
   46.904356080025771     
   20.000000000000000     
   20.000000000000000     
   20.000000000000000     
   347.66481560297717     
   20.000000000000000     
   20.000000000000000     
   20.000000000000000     
   20.000000000000000     
   107.60963599845491     
   20.000000000000000     
   21.301616995133404     
   21.228828312631126     
   20.000000000000000     
   20.000000000000000     
   26.965145393896012     
   20.000000000000476     
   20.000000000000000     
   20.000000000000000     
   20.000000000000000     
   20.260457353390002     
   20.683211054830178     
   20.000000000004611     
   20.000110692293578     
   20.000000000000000     
   20.000000000000000     
   106.91092248024874     
   47.203018179100695     
   20.000000000000000     
   20.000000000000000     
   20.000000000000000     
   20.112514221558122     
   20.274002263344581     
   20.000000000000000     
   916.08603263624400     
   20.000000572344739     
   26.995189005304422     
   20.000000000000000     
   52.381029911470094     
   49.819223736211875     
   20.040930078758773     
   20.000000000000000     
   20.050935243986114     
   20.000000000000000     
   20.000000000000021     
   20.000000000000263     
   20.776856109687053     
   20.000000000000000     
   114.61979793640874     
   20.000000001373277     
   20.004774697925434     
   20.004497984433783     
   20.007161945049525     
   20.000000000000000     
   427.85930861611376     
   20.000000000000000     
   20.000000000000000     
   20.000000000000000     
   20.002480093627916     
   20.000000000000000     
   29.246793023603406     
   20.000000000000000     
   20.000000000000000     
   20.000000000000000     
   28.445022326057781     
   20.000722636081083     
   20.000000000000000     
   20.000000000000000     
   20.000000000000000     
   20.000000000000000     
   20.000752628426834     
   20.000000000000000     
   20.000000000000000     
   20.000000000000000     
   20.000000000000000     
   20.000000000000000     
   20.000000003488410     
   20.000000000000000     
   20.000241208381645     
   20.000000000000000     
   20.000000000000369     
   20.659171982725162     
   20.000000000000000     
   20.277514773188017     
   20.000000000000000     
   20.000000000000000     
   20.000000000000000     
   20.000000000000000     
   20.000000000000000     
   20.000000000000000     
   20.000019646905610     
   20.000000000000000     
   20.000066875896096     
   20.000000000000000     
   20.000000000000000     
   20.000000000000000     
   20.000001313595696     
   20.000000000000000     
   20.035384032858516     
   20.041113718331466     
   149.49273057464737     
   20.000005011666715     
   20.714639983251523     
   22.211071128466486     
   1347.2767381670205     
   22.005859501008842     
   20.000000072672453     
   20.000000000000000     
   20.000000000000000     
   20.000000000001307     
   20.000000000000000     
   20.000004914706640     
   1415.2304525175634     
   20.000000000000000     
   20.000000000000000     
   20.000000000000000     
   20.000000000002327     
   20.000000000000000     
   20.000000000000000     
   546.07023516421486     
   431.68864289156369     
   20.000000000044139     
   20.000000000000544     
   20.000000000000000     
   20.000000298928295     
   20.000000000000000     
   20.000000000074571     
   1365.3753996511221     
   20.007287645348850     
   20.000000017020177     
   20.000000000000000     
   20.000000000000000     
   20.000000000000000     
   20.000000000000000     
   20.000000001196941     
   20.000000000000000     
   1234.7284046030957     
   1150.4129780702392     
   20.000000000000000     
   1121.5673075437296     
   20.000000000000000     
   20.000000001963667     
   1250.7731082917953     
   20.000000000000355     
   20.037510529064100     
   720.78923709963192     
   1267.8330915992478     
   20.000000000000000     
   20.000772970442540     
   20.000000000000000     
   20.000000000000000     
   20.000000000000000     
   20.000000000000000     
   20.000000000000000     
   20.000000000000000     
   20.000000000000000     
   20.000000000000000     
   760.67763821681262     
   20.000068600449140     
   20.000000000000000     
   464.44950256713361     
   20.000000000000000     
   20.000000000000000     
   20.000005044762272     
   20.000000306910472     
   20.000000000000000     
   20.000000000000000     
   1025.2185833871156     
   20.000000000000000     
   1186.9716608493427     
   907.59346330860922     
   20.000000000000000     
   20.000000000000000     
   1352.8981407598894     
   20.031552539231114     
   156.67547363370977     
   20.000000000027693     
   20.000000000000000     
   20.000000000000000     
   20.000000000000000     
   600.11232247189253     
   20.000000000000000     
   20.000000000000000     
   20.000000000000000     
   20.000000000000000     
   20.000000000000000     
   1177.0608615389401     
   680.09774955138869     
   20.000000000000000     
   20.000000000000000     
   20.501879685284123     
   1012.9511379305611     
   20.000000000000000     
   20.000000000000000     
   1089.6968981002349     
   1120.3101283867013     
   20.000000000000000     
   20.000000000000000     
   825.71657170169237     
   20.000000000000000     
   20.000000000000000     
   20.000000000000000     
   20.000000000000000     
   723.44985688572785     
   20.000000000000000     
   20.000000000000000     
   20.000000000000000     
   20.013597280189817     
   20.008492481099335     
   20.000000000000000     
   20.000000000000000     
   20.000000000000252     
   20.000000000000000     
   963.93505290496603     
   20.000000000000000     
   849.27995852533343     
   20.000000000000000     
   655.38475303120310     
   20.000000000000000     
   767.74699335576759     
   570.55076909347827     
   879.15027770877077     
   1049.3769900806240     
   816.82561262193735     
   20.000000000000000     
   20.000000000000000     
   20.000000000000000     
   694.53438813124069     
   612.51538897783189     
   532.16775564543707     
   514.56860872877462     
   913.92584945359044     
   444.05898409491010     
   20.000000000000000     
   20.000000000000000     
   20.000000000000000     
   20.000000000000000     
   1137.3499294935446     
   646.19715342644747     
   678.18215754890900     
   733.71028104012089     
   423.17937184068660     
   481.64656238612253     
   20.000000000000000     
   20.000000000000000     
   20.000000000000000     
   301.24719026156055     
   580.36244366769267     
   301.44356111527225     
   20.000000000000000     
   20.000000000000000     
   20.000000000000000     
   400.99981457858524     
   269.16792670470556     
   508.23155945942176     
   20.000000000000000     
   348.74073832058519     
   413.00509615790725     
   20.000000000000000     
   20.000000000000000     
   397.74109880595290     
   20.000000000000000     
   20.000000000000000     
   308.25166632747829     
   20.000000000000000     
   20.000000000000000     
   20.000000000000000     
   20.000000000000000     
   341.22317589249457     
   232.22623788237433     
   259.89619367824133     
   20.000000000000000     
   173.43133307655100     
   195.93763547016030     
   20.000000000000000     
   20.000000000000000     
   20.000000000000000     
   20.000000000000000     
   452.47134478882163     
   20.000000000000000     
   20.000000000000000     
   20.000000000000000     
   20.000000000000000     
   146.92650059337134     
   20.000000000000000     
   20.000000000000000     
   179.74214225855746     
   20.000000000000000     
   20.000000000000000     
   20.000000000000000     
   20.000000000000000     
   20.000000000000000     
   20.000000000000000     
   20.000000000000000     
   20.000000000000000     
   20.000000000000000     
   20.000000000000000     
   20.000000000000281     
   20.000000000000068     
   20.000000000000000     
   20.000000000000171     
   20.000000000000764     
   20.000000000026375     
   20.000000000001531     
   20.000000000000849     
   20.000000000008569     
   20.000000000002736     
   20.000000000735376     
   20.000000000046665     
   20.000000000026471     
   20.000000000252392     
   20.000000000082430     
   20.000000000397932     
   20.000000000004778     
   20.000000001196625     
   20.000000000655824     
   20.000000000220780     
   20.000000000130708     
   20.000000017017808     
   20.000000001263789     
   20.000000000738101     
   20.000000006271502     
   20.000000002168246     
   20.000000000143029     
   163.25747676983755     
   20.000000332857315     
   20.000000028691467     
   20.000000017197912     
   20.000000128654033     
   20.000000047088978     
   20.000000003654673     
   20.000000507014672     
   20.000000280030047     
   20.000000067266829     
   20.000000181597343     
   20.000005420052673     
   20.000000543480933     
   20.000000336000173     
   20.000002228020875     
   20.000000872048144     
   20.000000078148155     
   20.000000108427592     
   20.000073512840423     
   20.000008580095066     
   20.000005468993152     
   20.000032061818558     
   20.000013358332104     
   20.000001392296014     
   20.000095945283466     
   20.000058280797905     
   20.000016808530372     
   20.000040223917093     
   20.000828424933445     
   20.000112688241600     
   20.000074096800823     
   20.000384576412486     
   20.000169367861314     
   20.000020666660109     
   79.333878933688453     
   88.337676729160890     
   88.810842534410369     
   20.000025436399202     
   20.001778134364134     
   33.840569910505621     
   100.25891923612089     
   33.354475247777842     
   30.310002756013503     
   37.802435004553224     
   20.007745937896999     
   110.62076240918698     
   68.084609685636195     
   116.70239589660208     
   20.001230808049691     
   20.000834568413140     
   22.038400954089138     
   66.844672600763388     
   28.478168717181894     
   21.895236829836982     
   33.682588663418031     
   20.000255302159939     
   26.443560685797593     
   90.382703788504202     
   20.002635496677126     
   20.003832513794599     
   119.66926697677027     
   51.881880666742511     
   44.827473890829012     
   29.888827338823759     
   20.160486521931496     
   28.160054196803287     
   20.030564563043193     
   20.027525122645454     
   22.724402281980677     
   20.205023686942102     
   141.29504453553838     
   20.011097300284710     
   20.007780192029099     
   75.303931917688345     
   20.037506892928153     
   73.104481232395557     
   22.380239836055772     
   41.320410426613009     
   20.195418752808134     
   43.862514143854035     
   46.976879686288918     
   40.595053653206186     
   83.307960273787884     
   20.015413698920586     
   36.240841828753496     
   23.432041936567128     
   23.973839242591989     
   109.94371818112062     
   25.943339746049215     
   130.03665574012689     
   21.384463257418972     
   21.603225395094384     
   22.277817444924089     
   57.496007774334828     
   134.47587638713304     
   20.241855384688023     
   48.730324046491461     
   145.15188345316037     
   20.000000000000000     
   21.706729966886286     
   21.856257616082271     
   177.62513132856731     
   20.000000000000156     
   20.000000000000000     
   20.809335449262690     
   20.022229119572927     
   22.885236600176068     
   32.155885707931084     
   319.17104700179851     
   190.47931683149864     
   111.51400893988520     
   131.67738438099613     
   51.369341378227162     
   29.235469743105387     
   22.283150834115403     
   20.471718702697633     
   20.080423131350500     
   20.011386577406604     
   20.001352168996178     
   20.000133017852573     
   20.000010779403169     
   20.000000725382822     
   20.000000040716230     
   20.000000001872646     
   20.000000000074788     
   20.000000000002395     
   20.000000000000263     
   20.000000000000050     
   20.000000000000000     
   20.000000000000000     
   20.000000000000000     
   20.000000000000000     
   20.000000000000000     
   20.000000000000000     
   20.000000000000000     
   20.000000000000000     
   20.000000000000000     
   20.000000000000000     
   20.000000000000000     
   20.000000000000000     
   20.000000000000000     
   20.000000000000000     
   20.000000000000000     
   20.000000000000000     
   20.000000000000000     
   20.000000000000000     
   20.000000000000000     
   20.000000000000540     
   20.000000000015188     
   20.000000000434451     
   20.000000010459729     
   20.000000210533344     
   20.000003529064315     
   20.000049240930402     
   20.000571085862664     
   20.005490879812694     
   20.043870177034332     
   20.290652015761339     
   21.603507000235989     
   22.720058864239707     
   22.068757629038888     
   24.539463283289379     
   27.362862914828405     
   48.175747754678646     
   110.26742394487307     
   263.79927491905721     
   23.140702356229362     
   56.034466932424372     
   62.708722231118266     
   35.589492148215513     
   20.000000000000000     
   25.171709250373983     
   97.121830104522175     
   20.763559989164378     
   27.637387199542857     
   20.190275691924199     
   20.000000000000000     
   20.352660085678359     
   24.728029557983888     
   82.780372469299948     
   20.989415635045997     
   146.53772164096733     
   20.136417921000966     
   21.347828210302815     
   38.840318914639006     
   28.727935357383902     
   20.585236457353275     
   26.181267371313687     
   20.301707806402945     
   20.319038006365844     
   20.176033931874557     
   20.642214931442755     
   20.437434621876633     
   31.445781139870416     
   105.09202772276727     
   49.577160735063018     
   25.692768532673774     
   20.253242361337634     
   20.046395305241777     
   20.622056614612628     
   27.200139950489675     
   21.395370514258346     
   20.456944796412390     
   21.091395449859544     
   20.072576074774783     
   23.804052433342687     
   20.102372683240930     
   20.105515991599898     
   20.048434193961352     
   20.093245223637886     
   20.070108894144838     
   39.604176796205586     
   20.131596901461574     
   42.300851609458491     
   20.019207144820314     
   20.054770129139079     
   25.068103247379096     
   20.036228482501841     
   20.002897210203503     
   20.023782291174474     
   24.486908140310298     
   23.367768255897463     
   25.505688954557669     
   20.018302189935252     
   20.005888291405117     
   51.756108392528297     
   20.003850837155557     
   67.002697040483369     
   20.012481761422691     
   20.009363996245444     
   20.000289166000194     
   20.005056892859514     
   20.006157717958995     
   60.452341464438376     
   20.003770517241179     
   20.004533765563639     
   20.002275026774601     
   20.003017884086344     
   20.000401492680655     
   20.002166279443077     
   20.000615503712535     
   20.001438995776969     
   20.001022903679022     
   20.000674133539132     
   20.000023775002813     
   20.000220622309083     
   20.000467017829706     
   20.000302403145877     
   20.000210362748810     
   20.000035134430156     
   20.000054238323852     
   20.000135612434153     
   20.000093442821765     
   20.000059556152266     
   20.000001650528922     
   20.000017782393808     
   20.000040045477324     
   20.000025024391569     
   20.000016915429246     
   20.000002438197814     
   20.000003982525772     
   20.000010585662416     
   20.000007057710974     
   20.000004377745903     
   20.000000094460272     
   20.000001191970323     
   20.000002848859090     
   20.000001735910615     
   20.000001135692422     
   20.000000150372468     
   20.000000242880450     
   20.000000688570370     