# vtk DataFile Version 2.0
 temperature
 ASCII
 DATASET UNSTRUCTURED_GRID
 POINTS         773  double
   0.0000000000000000        0.0000000000000000        0.0000000000000000     
   3.5000000000000000        0.0000000000000000        0.0000000000000000     
   3.5000000000000000        40.000000000000000        0.0000000000000000     
   0.0000000000000000        40.000000000000000        0.0000000000000000     
  0.43750000000000000        0.0000000000000000        0.0000000000000000     
  0.87500000000000000        0.0000000000000000        0.0000000000000000     
   1.3125000000000000        0.0000000000000000        0.0000000000000000     
   1.7500000000000000        0.0000000000000000        0.0000000000000000     
   2.1875000000000000        0.0000000000000000        0.0000000000000000     
   2.6250000000000000        0.0000000000000000        0.0000000000000000     
   3.0625000000000000        0.0000000000000000        0.0000000000000000     
   3.5000000000000000       0.50000000000000000        0.0000000000000000     
   3.5000000000000000        1.0000000000000000        0.0000000000000000     
   3.5000000000000000        1.5000000000000000        0.0000000000000000     
   3.5000000000000000        2.0000000000000000        0.0000000000000000     
   3.5000000000000000        2.5000000000000000        0.0000000000000000     
   3.5000000000000000        3.0000000000000000        0.0000000000000000     
   3.5000000000000000        3.5000000000000000        0.0000000000000000     
   3.5000000000000000        4.0000000000000000        0.0000000000000000     
   3.5000000000000000        4.5000000000000000        0.0000000000000000     
   3.5000000000000000        5.0000000000000000        0.0000000000000000     
   3.5000000000000000        5.5000000000000000        0.0000000000000000     
   3.5000000000000000        6.0000000000000000        0.0000000000000000     
   3.5000000000000000        6.5000000000000000        0.0000000000000000     
   3.5000000000000000        7.0000000000000000        0.0000000000000000     
   3.5000000000000000        7.5000000000000000        0.0000000000000000     
   3.5000000000000000        8.0000000000000000        0.0000000000000000     
   3.5000000000000000        8.5000000000000000        0.0000000000000000     
   3.5000000000000000        9.0000000000000000        0.0000000000000000     
   3.5000000000000000        9.5000000000000000        0.0000000000000000     
   3.5000000000000000        10.000000000000000        0.0000000000000000     
   3.5000000000000000        10.500000000000000        0.0000000000000000     
   3.5000000000000000        11.000000000000000        0.0000000000000000     
   3.5000000000000000        11.500000000000000        0.0000000000000000     
   3.5000000000000000        12.000000000000000        0.0000000000000000     
   3.5000000000000000        12.500000000000000        0.0000000000000000     
   3.5000000000000000        13.000000000000000        0.0000000000000000     
   3.5000000000000000        13.500000000000000        0.0000000000000000     
   3.5000000000000000        14.000000000000000        0.0000000000000000     
   3.5000000000000000        14.500000000000000        0.0000000000000000     
   3.5000000000000000        15.000000000000000        0.0000000000000000     
   3.5000000000000000        15.500000000000000        0.0000000000000000     
   3.5000000000000000        16.000000000000000        0.0000000000000000     
   3.5000000000000000        16.500000000000000        0.0000000000000000     
   3.5000000000000000        17.000000000000000        0.0000000000000000     
   3.5000000000000000        17.500000000000000        0.0000000000000000     
   3.5000000000000000        18.000000000000000        0.0000000000000000     
   3.5000000000000000        18.500000000000000        0.0000000000000000     
   3.5000000000000000        19.000000000000000        0.0000000000000000     
   3.5000000000000000        19.500000000000000        0.0000000000000000     
   3.5000000000000000        20.000000000000000        0.0000000000000000     
   3.5000000000000000        20.500000000000000        0.0000000000000000     
   3.5000000000000000        21.000000000000000        0.0000000000000000     
   3.5000000000000000        21.500000000000000        0.0000000000000000     
   3.5000000000000000        22.000000000000000        0.0000000000000000     
   3.5000000000000000        22.500000000000000        0.0000000000000000     
   3.5000000000000000        23.000000000000000        0.0000000000000000     
   3.5000000000000000        23.500000000000000        0.0000000000000000     
   3.5000000000000000        24.000000000000000        0.0000000000000000     
   3.5000000000000000        24.500000000000000        0.0000000000000000     
   3.5000000000000000        25.000000000000000        0.0000000000000000     
   3.5000000000000000        25.500000000000000        0.0000000000000000     
   3.5000000000000000        26.000000000000000        0.0000000000000000     
   3.5000000000000000        26.500000000000000        0.0000000000000000     
   3.5000000000000000        27.000000000000000        0.0000000000000000     
   3.5000000000000000        27.500000000000000        0.0000000000000000     
   3.5000000000000000        28.000000000000000        0.0000000000000000     
   3.5000000000000000        28.500000000000000        0.0000000000000000     
   3.5000000000000000        29.000000000000000        0.0000000000000000     
   3.5000000000000000        29.500000000000000        0.0000000000000000     
   3.5000000000000000        30.000000000000000        0.0000000000000000     
   3.5000000000000000        30.500000000000000        0.0000000000000000     
   3.5000000000000000        31.000000000000000        0.0000000000000000     
   3.5000000000000000        31.500000000000000        0.0000000000000000     
   3.5000000000000000        32.000000000000000        0.0000000000000000     
   3.5000000000000000        32.500000000000000        0.0000000000000000     
   3.5000000000000000        33.000000000000000        0.0000000000000000     
   3.5000000000000000        33.500000000000000        0.0000000000000000     
   3.5000000000000000        34.000000000000000        0.0000000000000000     
   3.5000000000000000        34.500000000000000        0.0000000000000000     
   3.5000000000000000        35.000000000000000        0.0000000000000000     
   3.5000000000000000        35.500000000000000        0.0000000000000000     
   3.5000000000000000        36.000000000000000        0.0000000000000000     
   3.5000000000000000        36.500000000000000        0.0000000000000000     
   3.5000000000000000        37.000000000000000        0.0000000000000000     
   3.5000000000000000        37.500000000000000        0.0000000000000000     
   3.5000000000000000        38.000000000000000        0.0000000000000000     
   3.5000000000000000        38.500000000000000        0.0000000000000000     
   3.5000000000000000        39.000000000000000        0.0000000000000000     
   3.5000000000000000        39.500000000000000        0.0000000000000000     
   3.0625000000000000        40.000000000000000        0.0000000000000000     
   2.6250000000000000        40.000000000000000        0.0000000000000000     
   2.1875000000000000        40.000000000000000        0.0000000000000000     
   1.7500000000000000        40.000000000000000        0.0000000000000000     
   1.3125000000000000        40.000000000000000        0.0000000000000000     
  0.87500000000000000        40.000000000000000        0.0000000000000000     
  0.43750000000000000        40.000000000000000        0.0000000000000000     
   0.0000000000000000        39.500000000000000        0.0000000000000000     
   0.0000000000000000        39.000000000000000        0.0000000000000000     
   0.0000000000000000        38.500000000000000        0.0000000000000000     
   0.0000000000000000        38.000000000000000        0.0000000000000000     
   0.0000000000000000        37.500000000000000        0.0000000000000000     
   0.0000000000000000        37.000000000000000        0.0000000000000000     
   0.0000000000000000        36.500000000000000        0.0000000000000000     
   0.0000000000000000        36.000000000000000        0.0000000000000000     
   0.0000000000000000        35.500000000000000        0.0000000000000000     
   0.0000000000000000        35.000000000000000        0.0000000000000000     
   0.0000000000000000        34.500000000000000        0.0000000000000000     
   0.0000000000000000        34.000000000000000        0.0000000000000000     
   0.0000000000000000        33.500000000000000        0.0000000000000000     
   0.0000000000000000        33.000000000000000        0.0000000000000000     
   0.0000000000000000        32.500000000000000        0.0000000000000000     
   0.0000000000000000        32.000000000000000        0.0000000000000000     
   0.0000000000000000        31.500000000000000        0.0000000000000000     
   0.0000000000000000        31.000000000000000        0.0000000000000000     
   0.0000000000000000        30.500000000000000        0.0000000000000000     
   0.0000000000000000        30.000000000000000        0.0000000000000000     
   0.0000000000000000        29.500000000000000        0.0000000000000000     
   0.0000000000000000        29.000000000000000        0.0000000000000000     
   0.0000000000000000        28.500000000000000        0.0000000000000000     
   0.0000000000000000        28.000000000000000        0.0000000000000000     
   0.0000000000000000        27.500000000000000        0.0000000000000000     
   0.0000000000000000        27.000000000000000        0.0000000000000000     
   0.0000000000000000        26.500000000000000        0.0000000000000000     
   0.0000000000000000        26.000000000000000        0.0000000000000000     
[...]
 CELL_DATA        1368
 SCALARS T double
 LOOKUP_TABLE default
   20.001145934226415     
   20.052750604550017     
   1638.6632068556498     
   22.552783130818501     
   20.000000000000000     
   20.004856985382077     
   1246.4921916737608     
   20.003714976297854     
   20.000007869877400     
   20.002596540907739     
   20.000022538383234     
   21.119754925427500     
   20.001704255330832     
   22.755718665632482     
   21.316965157760102     
   1178.7311383271767     
   1638.9123048146434     
   20.000110981477683     
   20.000080027552826     
   20.010172656199291     
   20.000054261890828     
   20.000000079463941     
   1707.4247535712730     
   20.000000259884445     
   20.000861243844717     
   20.062315392470691     
   20.000032397284738     
   20.006605325492284     
   20.001312229262567     
   20.000010696914142     
   20.012139273493649     
   20.000000000000000     
   20.040069485105473     
   20.064280042711829     
   20.074036265836810     
   20.000000000000000     
   20.000251126364031     
   20.000001510842992     
   20.000026465494923     
   20.000001049568510     
   20.000000371654121     
   20.001991842351121     
   20.000000676375745     
   22.196220959194168     
   20.000156997612066     
   289.95607270622673     
   284.56926525394067     
   20.001193208675929     
   20.002230873111689     
   629.20005181960403     
   627.32149394297915     
   20.000015964624083     
   20.000311611542166     
   20.000000000000000     
   1683.6458050556078     
   20.000000000000000     
   20.000000000000000     
   20.000000044086210     
   20.000000015332741     
   20.000000115481686     
   20.000000000000000     
   22.094491522819894     
   20.000000305293344     
   20.000000000000000     
   20.007543927585846     
   20.012855662488022     
   20.000003672763413     
   20.014229219181559     
   20.000021803685797     
   20.000044028130283     
   20.000000000000000     
   1647.5043009912879     
   20.000000000000000     
   20.000039925730395     
   20.000002193325439     
   20.000004855308326     
   20.000000000000000     
   20.000000000000000     
   20.000000000000000     
   264.77669291968903     
   20.000000175856623     
   20.000000010676406     
   126.32168712111667     
   20.000000002207113     
   62.372140682948171     
   20.000177900485330     
   20.000335708501737     
   261.94653792034427     
   20.000000029468605     
   800.31391227472272     
   20.000000237008198     
   20.000000532198140     
   24.758386755736222     
   20.000000000000000     
   745.41416504864753     
   20.000000000179224     
   21.326483415807711     
   20.000000000000000     
   20.000000000381306     
   20.000000000000000     
   125.55732971476800     
   20.000000000000000     
   132.33441745304376     
   131.63529024529853     
   20.000000469098186     
   20.000000024003679     
   20.000000000000000     
   20.000005869097411     
   20.000000000000000     
   20.000000000000000     
   20.211187251189671     
   383.23330679553533     
   20.091028331791314     
   20.000000000043887     
   20.000000000000000     
   20.000000000000000     
   67.921695798280311     
   20.017799256706514     
   67.301111514174721     
   20.000000000003197     
   20.000000000000000     
   20.000000000039272     
   20.000000006111168     
   62.067327798425865     
   20.003087663862644     
   176.33812726192610     
   20.000002515982445     
   20.000005024762984     
   20.000000003537586     
   20.000401938409464     
   20.000000000000000     
   20.000000000071207     
   390.41565967836590     
   20.000465418970037     
   20.000000000000000     
   20.000000000000000     
   20.000061100890491     
   38.519364646761368     
   1282.9620546844571     
   38.140983842652645     
   963.24413584168394     
   397.83397197240441     
   85.699422707349072     
   20.000000000111005     
   20.000000001463306     
   20.000000000003563     
   418.45125514609521     
   20.000000000600792     
   20.000000000000000     
   20.000000000000000     
   20.000000000003212     
   178.37016891929360     
   20.000000001066233     
   26.364502098041662     
   26.209654215908859     
   20.000000000000000     
   20.000000000003133     
   44.603577480359533     
   20.000000006542091     
   20.000000000000000     
   20.000000000000000     
   20.000000000000000     
   21.922640923142243     
   24.713222514985354     
   20.000000056490645     
   20.008768627251332     
   20.000000000000000     
   20.000000000000000     
   158.69513676391838     
   86.520460691594664     
   20.000000000023867     
   20.000000000000693     
   20.000000000000000     
   21.315522124625637     
   22.447192811826586     
   20.000000000001922     
   963.40910365435184     
   20.000219642540927     
   44.787985652011955     
   20.000000000000000     
   86.664734380906083     
   82.046671151018529     
   20.639611662479322     
   20.000000000000089     
   20.668682401623542     
   20.000000000005890     
   20.000000003862763     
   20.000000009193624     
   24.752846543912998     
   20.000000000000000     
   169.60786978700511     
   20.000003190130883     
   20.120513704693323     
   20.116475440709806     
   20.184817670153215     
   20.000000000000000     
   498.02756702507435     
   20.000000000012292     
   20.000000000000000     
   20.000000000000213     
   20.089127354875501     
   20.000000000000711     
   46.572600423481731     
   20.000000000672678     
   20.000000001622208     
   20.000000000023107     
   44.585576645204533     
   20.033522499575817     
   20.000000000000334     
   20.000000000000000     
   20.000000000001158     
   20.000000000000000     
   20.038034785405593     
   20.000000000000000     
   20.000000000035325     
   20.000000000000345     
   20.000000000147409     
   20.000000000915520     
   20.000006174563346     
   20.000000000002043     
   20.017412216136620     
   20.000000000000000     
   20.000000004538265     
   24.225903162150857     
   20.000000000273644     
   22.481870136868007     
   20.000000000226173     
   20.000000000000135     
   20.000000000000000     
   20.000000000000249     
   20.000000000010736     
   20.000000000000000     
   20.003011241013272     
   20.000000000000000     
   20.006975606615040     
   20.000000000000043     
   20.000000002180602     
   20.000000000000000     
   20.000453355299456     
   20.000000003274923     
   20.515874312530759     
   20.645079636623684     
   217.92957953096973     
   20.001026259949541     
   24.258782491158552     
   29.457736204116472     
   1390.2207115720064     
   28.709483939153568     
   20.000059623986157     
   20.000000000000000     
   20.000000000000000     
   20.000000028577688     
   20.000000000008750     
   20.001120760684810     
   1464.9104584077020     
   20.000000000000000     
   20.000000000000000     
   20.000000000000458     
   20.000000041947864     
   20.000000000013518     
   20.000000000000000     
   635.77513015214129     
   496.62593222804890     
   20.000000329473934     
   20.000000012238452     
   20.000000000248029     
   20.000157687425823     
   20.000000000000000     
   20.000000473496115     
   1411.8178188080619     
   20.188821855445237     
   20.000019067606491     
   20.000000000005105     
   20.000000000020801     
   20.000000000007908     
   20.000000000000000     
   20.000003347729134     
   20.000000000000000     
   1306.6400581932794     
   1169.4367469770036     
   20.000000000000000     
   1185.2874731405509     
   20.000000000000000     
   20.000004709831945     
   1307.7678214910711     
   20.000000008369135     
   20.501305714454553     
   790.76837288378454     
   1327.6413260143534     
   20.000000000000000     
   20.039146493849568     
   20.000000000000000     
   20.000000000000000     
   20.000000000006487     
   20.000000000017256     
   20.000000000000000     
   20.000000000000000     
   20.000000000000000     
   20.000000000000000     
   836.86639133807023     
   20.007178409017925     
   20.000000000000000     
   552.23280013959447     
   20.000000000000000     
   20.000000000000000     
   20.001154481048385     
   20.000162487500081     
   20.000000000000000     
   20.000000000000000     
   1098.5003250156560     
   20.000000000000000     
   1237.2489974257878     
   985.65870992852069     
   20.000000000015230     
   20.000000000009297     
   1414.7394028303881     
   20.444798534184290     
   224.91656449072960     
   20.000000210423625     
   20.000000000000000     
   20.000000000000000     
   20.000000000000000     
   683.70149622643521     
   20.000000000001446     
   20.000000000000000     
   20.000000000000000     
   20.000000000001034     
   20.000000000901746     
   1245.9991287351181     
   720.57400220337684     
   20.000000000000000     
   20.000000000000000     
   23.322006024329713     
   1102.7560780493561     
   20.000000000001023     
   20.000000000000000     
   1149.5925017493607     
   1202.1455073623815     
   20.000000001335451     
   20.000000000058996     
   911.86845173285644     
   20.000000000000000     
   20.000000000000000     
   20.000000000000000     
   20.000000000000000     
   812.08026655032802     
   20.000000000089248     
   20.000000000000000     
   20.000000000000000     
   20.272443547879401     
   20.182145827975177     
   20.000000000000000     
   20.000000000000000     
   20.000000005244498     
   20.000000000000000     
   1048.7408720477154     
   20.000000000000000     
   939.00419568247639     
   20.000000000000000     
   750.21767839982090     
   20.000000000000000     
   864.85092510964114     
   665.59770244554841     
   952.54927458462896     
   1125.6794684587437     
   919.80007642068892     
   20.000000000000000     
   20.000000000000000     
   20.000000000000000     
   777.81817552131304     
   716.45618179087160     
   635.82904738162210     
   613.75098433205142     
   1011.1749051736691     
   541.23571762617098     
   20.000000000001286     
   20.000000000000000     
   20.000000000000000     
   20.000000000000000     
   1183.8750211543243     
   757.25550458961447     
   777.43818891217359     
   841.52082722527098     
   514.69534273155477     
   587.81453668519021     
   20.000000000000000     
   20.000000000000000     
   20.000000000000000     
   408.53339091866798     
   693.67964746907262     
   407.88807585028627     
   20.000000000000000     
   20.000000000000043     
   20.000000000000153     
   500.37280584192229     
   353.58889972800171     
   622.16552465368659     
   20.000000000000000     
   459.53136078417072     
   516.63328487104820     
   20.000000000000000     
   20.000000000000000     
   510.32360415234194     
   20.000000000000366     
   20.000000000000000     
   404.53275340339809     
   20.000000000000259     
   20.000000000000000     
   20.000000000000000     
   20.000000000000426     
   436.67626012701049     
   322.57197210172507     
   350.53896292490674     
   20.000000000000000     
   255.34951426068602     
   279.68079603255887     
   20.000000000000430     
   20.000000000000757     
   20.000000000000000     
   20.000000000001123     
   566.56984879373215     
   20.000000000005603     
   20.000000000008889     
   20.000000000014929     
   20.000000000001783     
   206.54495594140661     
   20.000000000003535     
   20.000000000002142     
   265.00564597359806     
   20.000000000015085     
   20.000000000005734     
   20.000000000000000     
   20.000000000061480     
   20.000000000053156     
   20.000000000031442     
   20.000000000097621     
   20.000000000009329     
   20.000000000605628     
   20.000000000925635     
   20.000000008576745     
   20.000000003571916     
   20.000000002324093     
   20.000000005540308     
   20.000000019726691     
   20.000000232034370     
   20.000000030284536     
   20.000000019858561     
   20.000000105332884     
   20.000000046064550     
   20.000002406131919     
   20.000000348624365     
   20.000000233520904     
   20.000001140150957     
   20.000000519325994     
   20.000001283424425     
   20.000000069357942     
   20.000002770541244     
   20.000001772383072     
   20.000000829388657     
   20.000000587583308     
   20.000021804197335     
   20.000003537192011     
   20.000002420678253     
   20.000010870590511     
   20.000005159247593     
   20.000000765708627     
   248.01589646082928     
   20.000175095369428     
   20.000031620083995     
   20.000022037665680     
   20.000090329664609     
   20.000044668918921     
   20.000007448332770     
   20.000193615379466     
   20.000124116844695     
   20.000046890397176     
   20.000094040235172     
   20.001234943405919     
   20.000248135666293     
   20.000176819232486     
   20.000665122645490     
   20.000345065651707     
   20.000063771624852     
   20.000064002039792     
   20.007659403685864     
   20.001711820958366     
   20.001246583038743     
   20.004300205642906     
   20.002330726223022     
   20.000479133490010     
   20.007597150327872     
   20.005224588716537     
   20.002239497325366     
   20.004127799108339     
   20.041753457775346     
   20.010380421400399     
   20.007726022047887     
   20.024485357017177     
   20.013788754468347     
   20.003165763848976     
   132.08686080883595     
   149.57339861677610     
   143.97002137292532     
   20.002925400665820     
   20.071592166709618     
   57.878704873956892     
   165.29187165953817     
   58.929335986644340     
   52.079229239545889     
   66.020593193704528     
   20.200150129600729     
   169.50672136826870     
   120.40658550640018     
   180.42037474768830     
   20.055369335509823     
   20.042101031747514     
   29.501582232581860     
   117.75721997633178     
   48.011747427581092     
   28.792712654564575     
   59.936114298910944     
   20.018394919270101     
   42.823649410880513     
   141.89866960832379     
   20.094429744084227     
   20.122674304915012     
   192.06564489071638     
   93.581295794354133     
   80.844671533214566     
   50.723494182084210     
   21.575055087824992     
   45.200694163479362     
   20.526946535810637     
   20.477077626886011     
   31.830356312471324     
   21.848764966755041     
   212.58100525556793     
   20.258982935854551     
   20.201487616963231     
   129.99555808338096     
   20.588523542335601     
   125.46154088681686     
   31.171194097245149     
   71.949216752592577     
   21.750175093705906     
   78.401377081831669     
   82.368013919179717     
   73.419668251813775     
   134.33598351065962     
   20.325647426704627     
   64.635701852272703     
   34.939400420163203     
   36.130112834047836     
   175.55055756877633     
   39.727906689786501     
   202.47992814433786     
   26.933279377051775     
   28.091149554707361     
   30.672397973714421     
   102.47957099851438     
   210.14127528021100     
   22.164819372407958     
   86.446598819059474     
   196.17690628645991     
   20.000000000197083     
   28.612610636494956     
   29.408471810216586     
   235.19402032238244     
   20.000000001918917     
   20.000000000329067     
   25.172406785172885     
   20.421760459239547     
   32.542440854735958     
   55.413336311354513     
   374.82688089005308     
   245.08976838943087     
   158.53072144825234     
   184.29163346959618     
   81.420560050866129     
   44.973839467282062     
   29.091534556634059     
   22.946646508493536     
   20.843276805737720     
   20.212086003013788     
   20.047415951511560     
   20.009301787970077     
   20.001602769476683     
   20.000241773059976     
   20.000032207128090     
   20.000003695504873     
   20.000000387626258     
   20.000000034813958     
   20.000000002783459     
   20.000000001166732     
   20.000000000485244     
   20.000000000804604     
   20.000000000079275     
   20.000000000133081     
   20.000000000004782     
   20.000000000000473     
   20.000000000000000     
   20.000000000000000     
   20.000000000099138     
   20.000000000000000     
   20.000000000000000     
   20.000000000000000     
   20.000000000001293     
   20.000000000024365     
   20.000000000157961     
   20.000000000391214     
   20.000000000249404     
   20.000000000961457     
   20.000000000618428     
   20.000000013164488     
   20.000000157921580     
   20.000001670400046     
   20.000015570115519     
   20.000127597993693     
   20.000918378899613     
   20.005810198365356     
   20.032312366010316     
   20.157969100161903     
   20.680159756799036     
   22.582076409488756     
   28.682505858519097     
   32.661041065767648     
   30.400245856781520     
   38.277277335561223     
   45.879193845400501     
   88.644414964448018     
   182.80164229783452     
   367.77360350575901     
   33.708203687811960     
   99.098725870289400     
   109.02956353298832     
   62.776542645224445     
   20.000000000038948     
   39.617035953072858     
   159.45689940625934     
   24.884795333298843     
   45.282789833161857     
   21.865825964229003     
   20.000000000061931     
   22.886949685973018     
   37.881312237296257     
   138.68528211708011     
   25.827306838651243     
   221.64206613616415     
   21.464276904044564     
   27.335178631737538     
   68.753844731475340     
   47.081492153092036     
   24.015334985012821     
   41.867395193287948     
   22.462792499216814     
   22.610931479275109     
   21.715116196955815     
   24.454569914293803     
   23.295725325583895     
   53.339940103249383     
   166.84911296891275     
   84.618281817297358     
   41.483364342882346     
   22.267396870857993     
   20.656576093169310     
   24.316940928031411     
   43.792060788908721     
   27.626872087921146     
   23.446228920573059     
   26.440395556454462     
   20.937715277511842     
   35.415462611231924     
   21.203501409365494     
   21.240534300874558     
   20.688831357034825     
   21.093588742268786     
   20.902457261503777     
   67.889316362869323     
   21.408519375466010     
   71.750729415452000     
   20.367900914175230     
   20.774333647769101     
   37.926921967707464     
   20.566158284089536     
   20.092740601762713     
   20.416686818865763     
   36.933596686442122     
   33.613008115812022     
   39.397855156521231     
   20.349436179210159     
   20.153155099210618     
   89.643031215971874     
   20.112044256461072     
   113.19165537167420     
   20.264932746612718     
   20.218531409819398     
   20.018427147969067     
   20.130977327160217     
   20.161049319099845     
   104.17037363156648     
   20.107813021152907     
   20.131180701763085     
   20.081956392518983     
   20.097550271210881     
   20.022926104282995     
   20.077949689830422     
   20.031316726665835     
   20.058029743554140     
   20.046108232760840     
   20.034094337588023     
   20.003188097050053     
   20.015970863378026     
   20.026631541736258     
   20.019434706034751     
   20.015199999426915     
   20.004147073996858     
   20.005683115991832     
   20.011075552600246     
   20.008614368217764     
   20.006217805734806     
   20.000493002207477     
   20.002735205244193     
   20.004758159657673     
   20.003386480192965     
   20.002596950061566     
   20.000639867491831     
   20.000914247766065     
   20.001853120695749     
   20.001409258256000     
   20.000998436350294     
   20.000066311416457     
   20.000412001837926     
   20.000746953659480     
   20.000522330982694     
   20.000391548382034     
   20.000090809035985     
   20.000128458470787     
   20.000273165185703     