# vtk DataFile Version 2.0
 temperature
 ASCII
 DATASET UNSTRUCTURED_GRID
 POINTS         773  double
   0.0000000000000000        0.0000000000000000        0.0000000000000000     
   3.5000000000000000        0.0000000000000000        0.0000000000000000     
   3.5000000000000000        40.000000000000000        0.0000000000000000     
   0.0000000000000000        40.000000000000000        0.0000000000000000     
  0.43750000000000000        0.0000000000000000        0.0000000000000000     
  0.87500000000000000        0.0000000000000000        0.0000000000000000     
   1.3125000000000000        0.0000000000000000        0.0000000000000000     
   1.7500000000000000        0.0000000000000000        0.0000000000000000     
   2.1875000000000000        0.0000000000000000        0.0000000000000000     
   2.6250000000000000        0.0000000000000000        0.0000000000000000     
   3.0625000000000000        0.0000000000000000        0.0000000000000000     
   3.5000000000000000       0.50000000000000000        0.0000000000000000     
   3.5000000000000000        1.0000000000000000        0.0000000000000000     
   3.5000000000000000        1.5000000000000000        0.0000000000000000     
   3.5000000000000000        2.0000000000000000        0.0000000000000000     
   3.5000000000000000        2.5000000000000000        0.0000000000000000     
   3.5000000000000000        3.0000000000000000        0.0000000000000000     
   3.5000000000000000        3.5000000000000000        0.0000000000000000     
   3.5000000000000000        4.0000000000000000        0.0000000000000000     
   3.5000000000000000        4.5000000000000000        0.0000000000000000     
   3.5000000000000000        5.0000000000000000        0.0000000000000000     
   3.5000000000000000        5.5000000000000000        0.0000000000000000     
   3.5000000000000000        6.0000000000000000        0.0000000000000000     
   3.5000000000000000        6.5000000000000000        0.0000000000000000     
   3.5000000000000000        7.0000000000000000        0.0000000000000000     
   3.5000000000000000        7.5000000000000000        0.0000000000000000     
   3.5000000000000000        8.0000000000000000        0.0000000000000000     
   3.5000000000000000        8.5000000000000000        0.0000000000000000     
   3.5000000000000000        9.0000000000000000        0.0000000000000000     
   3.5000000000000000        9.5000000000000000        0.0000000000000000     
   3.5000000000000000        10.000000000000000        0.0000000000000000     
   3.5000000000000000        10.500000000000000        0.0000000000000000     
   3.5000000000000000        11.000000000000000        0.0000000000000000     
   3.5000000000000000        11.500000000000000        0.0000000000000000     
   3.5000000000000000        12.000000000000000        0.0000000000000000     
   3.5000000000000000        12.500000000000000        0.0000000000000000     
   3.5000000000000000        13.000000000000000        0.0000000000000000     
   3.5000000000000000        13.500000000000000        0.0000000000000000     
   3.5000000000000000        14.000000000000000        0.0000000000000000     
   3.5000000000000000        14.500000000000000        0.0000000000000000     
   3.5000000000000000        15.000000000000000        0.0000000000000000     
   3.5000000000000000        15.500000000000000        0.0000000000000000     
   3.5000000000000000        16.000000000000000        0.0000000000000000     
   3.5000000000000000        16.500000000000000        0.0000000000000000     
   3.5000000000000000        17.000000000000000        0.0000000000000000     
   3.5000000000000000        17.500000000000000        0.0000000000000000     
   3.5000000000000000        18.000000000000000        0.0000000000000000     
   3.5000000000000000        18.500000000000000        0.0000000000000000     
   3.5000000000000000        19.000000000000000        0.0000000000000000     
   3.5000000000000000        19.500000000000000        0.0000000000000000     
   3.5000000000000000        20.000000000000000        0.0000000000000000     
   3.5000000000000000        20.500000000000000        0.0000000000000000     
   3.5000000000000000        21.000000000000000        0.0000000000000000     
   3.5000000000000000        21.500000000000000        0.0000000000000000     
   3.5000000000000000        22.000000000000000        0.0000000000000000     
   3.5000000000000000        22.500000000000000        0.0000000000000000     
   3.5000000000000000        23.000000000000000        0.0000000000000000     
   3.5000000000000000        23.500000000000000        0.0000000000000000     
   3.5000000000000000        24.000000000000000        0.0000000000000000     
   3.5000000000000000        24.500000000000000        0.0000000000000000     
   3.5000000000000000        25.000000000000000        0.0000000000000000     
   3.5000000000000000        25.500000000000000        0.0000000000000000     
   3.5000000000000000        26.000000000000000        0.0000000000000000     
   3.5000000000000000        26.500000000000000        0.0000000000000000     
   3.5000000000000000        27.000000000000000        0.0000000000000000     
   3.5000000000000000        27.500000000000000        0.0000000000000000     
   3.5000000000000000        28.000000000000000        0.0000000000000000     
   3.5000000000000000        28.500000000000000        0.0000000000000000     
   3.5000000000000000        29.000000000000000        0.0000000000000000     
   3.5000000000000000        29.500000000000000        0.0000000000000000     
   3.5000000000000000        30.000000000000000        0.0000000000000000     
   3.5000000000000000        30.500000000000000        0.0000000000000000     
   3.5000000000000000        31.000000000000000        0.0000000000000000     
   3.5000000000000000        31.500000000000000        0.0000000000000000     
   3.5000000000000000        32.000000000000000        0.0000000000000000     
   3.5000000000000000        32.500000000000000        0.0000000000000000     
   3.5000000000000000        33.000000000000000        0.0000000000000000     
   3.5000000000000000        33.500000000000000        0.0000000000000000     
   3.5000000000000000        34.000000000000000        0.0000000000000000     
   3.5000000000000000        34.500000000000000        0.0000000000000000     
   3.5000000000000000        35.000000000000000        0.0000000000000000     
   3.5000000000000000        35.500000000000000        0.0000000000000000     
   3.5000000000000000        36.000000000000000        0.0000000000000000     
   3.5000000000000000        36.500000000000000        0.0000000000000000     
   3.5000000000000000        37.000000000000000        0.0000000000000000     
   3.5000000000000000        37.500000000000000        0.0000000000000000     
   3.5000000000000000        38.000000000000000        0.0000000000000000     
   3.5000000000000000        38.500000000000000        0.0000000000000000     
   3.5000000000000000        39.000000000000000        0.0000000000000000     
   3.5000000000000000        39.500000000000000        0.0000000000000000     
   3.0625000000000000        40.000000000000000        0.0000000000000000     
   2.6250000000000000        40.000000000000000        0.0000000000000000     
   2.1875000000000000        40.000000000000000        0.0000000000000000     
   1.7500000000000000        40.000000000000000        0.0000000000000000     
   1.3125000000000000        40.000000000000000        0.0000000000000000     
  0.87500000000000000        40.000000000000000        0.0000000000000000     
  0.43750000000000000        40.000000000000000        0.0000000000000000     
   0.0000000000000000        39.500000000000000        0.0000000000000000     
   0.0000000000000000        39.000000000000000        0.0000000000000000     
   0.0000000000000000        38.500000000000000        0.0000000000000000     
   0.0000000000000000        38.000000000000000        0.0000000000000000     
   0.0000000000000000        37.500000000000000        0.0000000000000000     
   0.0000000000000000        37.000000000000000        0.0000000000000000     
   0.0000000000000000        36.500000000000000        0.0000000000000000     
   0.0000000000000000        36.000000000000000        0.0000000000000000     
   0.0000000000000000        35.500000000000000        0.0000000000000000     
   0.0000000000000000        35.000000000000000        0.0000000000000000     
   0.0000000000000000        34.500000000000000        0.0000000000000000     
   0.0000000000000000        34.000000000000000        0.0000000000000000     
   0.0000000000000000        33.500000000000000        0.0000000000000000     
   0.0000000000000000        33.000000000000000        0.0000000000000000     
   0.0000000000000000        32.500000000000000        0.0000000000000000     
   0.0000000000000000        32.000000000000000        0.0000000000000000     
   0.0000000000000000        31.500000000000000        0.0000000000000000     
   0.0000000000000000        31.000000000000000        0.0000000000000000     
   0.0000000000000000        30.500000000000000        0.0000000000000000     
   0.0000000000000000        30.000000000000000        0.0000000000000000     
   0.0000000000000000        29.500000000000000        0.0000000000000000     
   0.0000000000000000        29.000000000000000        0.0000000000000000     
   0.0000000000000000        28.500000000000000        0.0000000000000000     
   0.0000000000000000        28.000000000000000        0.0000000000000000     
   0.0000000000000000        27.500000000000000        0.0000000000000000     
   0.0000000000000000        27.000000000000000        0.0000000000000000     
   0.0000000000000000        26.500000000000000        0.0000000000000000     
   0.0000000000000000        26.000000000000000        0.0000000000000000     
[...]
 CELL_DATA        1368
 SCALARS T double
 LOOKUP_TABLE default
   21.504057833181893     
   27.464499950965720     
   1678.4458359721962     
   48.731611041147630     
   20.000016797034078     
   22.747571269391898     
   1281.2972355938962     
   22.581260407008379     
   20.264021450004613     
   22.189900137790101     
   20.388206343640295     
   42.659437216892755     
   22.162443245993316     
   51.407004390794285     
   44.037058173264484     
   1214.2812705942565     
   1679.6470466598687     
   20.734920145280302     
   20.681952620832615     
   24.085090096829830     
   20.576462971797952     
   20.057845810840874     
   1738.7894697478800     
   20.088653191654632     
   21.301274940622068     
   27.247974408752640     
   20.554243767235942     
   23.160937854273406     
   21.718045978320767     
   20.302458285669100     
   23.948946262166469     
   20.000027621004719     
   26.611865842917105     
   27.889744348094915     
   27.613922025003276     
   20.000023979608994     
   21.112043200913043     
   20.174003104276110     
   20.450494640605129     
   20.160093522694901     
   20.126170494321087     
   22.073283260602921     
   20.133156747037724     
   50.444789916992136     
   20.853999922976978     
   451.15734312324417     
   443.20114462873249     
   21.863270010708664     
   22.316441561053008     
   701.44164333116476     
   706.58793096408613     
   20.330241254569565     
   21.082469924134344     
   20.000022627877730     
   1710.1108471099128     
   20.000020071267365     
   20.000046623088437     
   20.056828089338946     
   20.033773757533378     
   20.067924740311629     
   20.000057288453796     
   48.486336570318159     
   20.102976963491873     
   20.000099116487036     
   23.585414028197100     
   24.356176287117485     
   20.267553233879912     
   24.121941787098081     
   20.472614980314532     
   20.598361112291482     
   20.000040043297552     
   1678.6866964129481     
   20.000067118854002     
   20.539048606084616     
   20.202922039208090     
   20.265372529589168     
   20.000134508183748     
   20.000280717306332     
   20.000034002343316     
   427.50984571749512     
   20.074389718050398     
   20.031482909618486     
   266.87361220627906     
   20.020865408778786     
   170.12785528179157     
   20.964069736863635     
   21.200493801961617     
   423.52579767728753     
   20.048261363452454     
   864.86525276897419     
   20.105854054202833     
   20.137774521676011     
   73.440916720475897     
   20.000766974594821     
   808.64342225291307     
   20.010674489409062     
   51.096037617362519     
   20.000375703386378     
   20.011872044009603     
   20.000164985482851     
   265.05956290159116     
   20.000115884483787     
   225.03150780701640     
   228.77356244265221     
   20.123180862098803     
   20.040800996232527     
   20.000033058523119     
   20.246534691123131     
   20.000028682168104     
   20.000189912236866     
   31.309446847367887     
   535.49669567828857     
   30.757637330907066     
   20.006633886351388     
   20.000082971680825     
   20.000016797658219     
   144.83823846126313     
   25.889395827391446     
   147.04409532717889     
   20.003617970611124     
   20.000116899454248     
   20.005952627068766     
   20.033265800991945     
   169.00130975135366     
   23.148664344866397     
   325.17031364497035     
   20.230281973204484     
   20.289766775012470     
   20.025216536546989     
   21.157775127360736     
   20.000040367038778     
   20.007959901381735     
   546.35508568632429     
   21.630808435797469     
   20.000325957284751     
   20.001017654226306     
   20.817545068800051     
   95.657097441071059     
   1323.2595759776141     
   97.186669336612326     
   1011.4287767447120     
   489.38932675854926     
   206.33106500066907     
   20.008890629527560     
   20.018956611253117     
   20.002671848507713     
   512.38285582087610     
   20.014215225100585     
   20.000236362967001     
   20.000329217528602     
   20.003536857506067     
   329.42816017260247     
   20.018935333912800     
   65.137116123425656     
   65.932463318899480     
   20.000457519288592     
   20.002315376997302     
   132.33703529092435     
   20.025513176146752     
   20.000882431466465     
   20.000525082693933     
   20.000081096988019     
   43.894211509854713     
   72.959837345498769     
   20.053651982811868     
   23.375880301259013     
   20.000893389545386     
   20.000015614875931     
   254.42936220085085     
   208.95412814011036     
   20.004887198325861     
   20.001721163164710     
   20.000646846812263     
   50.829517111114150     
   59.337419480727064     
   20.001853256710763     
   1016.5567582100248     
   20.922989641578543     
   133.62826190451619     
   20.001231049357280     
   173.48464892078550     
   164.72850411423838     
   42.645021174350596     
   20.001398915077147     
   38.614217577542526     
   20.003268063275868     
   20.027857521078698     
   20.036874877428705     
   65.577241945135000     
   20.000031917518552     
   270.12794136151575     
   20.221183852869384     
   28.611951089660419     
   28.623053663598895     
   33.500650012776362     
   20.000017272602737     
   587.16545433947317     
   20.003414929256422     
   20.000028258821640     
   20.001699853942622     
   30.531691149016531     
   20.002334108846320     
   113.27606513435695     
   20.015887495197962     
   20.021071460254596     
   20.006606115070888     
   107.72590604226986     
   25.792602800072455     
   20.001921528190287     
   20.000032410293652     
   20.002638261357241     
   20.000053227971250     
   27.439802020876485     
   20.000015145402230     
   20.007473110161509     
   20.001252154791672     
   20.011909761543215     
   20.015674981180400     
   20.281304313827050     
   20.003179426379489     
   25.762787495742366     
   20.000037244259413     
   20.023841685818972     
   63.197505231877301     
   20.011891109118952     
   59.967941833216884     
   20.013486265510014     
   20.000909251057763     
   20.000022135277362     
   20.001040641104833     
   20.004367347628936     
   20.000045650306866     
   23.080415043109454     
   20.000230972861253     
   24.014355330833244     
   20.000756003318003     
   20.028169326679258     
   20.000024514829292     
   21.594923522700846     
   20.031718083171452     
   36.668013310070954     
   42.966016643014569     
   337.65101829948702     
   21.648213367871154     
   59.453198564702724     
   75.964848053802967     
   1437.3384314513432     
   72.539789900623788     
   20.798566487915682     
   20.000657309281429     
   20.000339493700658     
   20.064494062768141     
   20.004868604575115     
   22.105844461117641     
   1519.4754376397268     
   20.000279371266700     
   20.000545583780397     
   20.001426143804725     
   20.072165662527077     
   20.005509496263286     
   20.000044240928155     
   748.98230199397153     
   577.93861706856831     
   20.142687473937606     
   20.036397988286083     
   20.010706719151251     
   21.072056366671024     
   20.000051111855015     
   20.158794856639638     
   1462.8386607205414     
   33.866943072865830     
   20.421597368571284     
   20.004051072355896     
   20.004258641729049     
   20.003135315312097     
   20.000048864395016     
   20.305480691851081     
   20.000044377262629     
   1387.1442617285545     
   1190.1028916764617     
   20.000011915783716     
   1256.8469858495587     
   20.000050460095856     
   20.338131470256169     
   1371.0360507724736     
   20.033320147573519     
   34.354812676978568     
   873.08044173788517     
   1394.0762199361636     
   20.000127175457219     
   27.672885653210166     
   20.000023903642365     
   20.000474359755373     
   20.003614922416233     
   20.004930236145089     
   20.000242252017841     
   20.000030087053460     
   20.000140445656328     
   20.000024754214124     
   926.63922706210485     
   24.144308457612606     
   20.000390427682994     
   666.21308689989792     
   20.000021701675021     
   20.000198014215322     
   22.176267739547715     
   21.108500872067996     
   20.000015811699161     
   20.000021218648829     
   1181.9725374286131     
   20.000034217573042     
   1293.0109794063069     
   1076.0226569217959     
   20.004412246222760     
   20.003629315081930     
   1483.1682250251813     
   33.727504068726503     
   341.64061743660108     
   20.094968868861930     
   20.000030097983657     
   20.000016853431447     
   20.000057781733016     
   786.47380785957148     
   20.001962648300452     
   20.000039797356401     
   20.000635391712311     
   20.001756314267723     
   20.021223094148819     
   1323.3640082382035     
   766.47618055855105     
   20.000024036669767     
   20.000048866557250     
   55.513359734783116     
   1206.3923348512046     
   20.001941927457754     
   20.000069769468460     
   1216.8198747267202     
   1295.0828594898062     
   20.023780329899754     
   20.008898061008519     
   1013.4654586388518     
   20.000041709781005     
   20.000125657315373     
   20.000086417177453     
   20.000088705194422     
   918.76553449488551     
   20.010029249260533     
   20.000122097970888     
   20.000143550427243     
   33.875741931167653     
   30.241376021471758     
   20.000069218703896     
   20.000030985679881     
   20.027569896621149     
   20.000069631263916     
   1146.8018627842398     
   20.000097741277344     
   1044.8098466376057     
   20.000063481390075     
   867.01963826938152     
   20.000031258560270     
   981.81428388159679     
   785.60576371644595     
   1037.4226404728495     
   1212.5936546169455     
   1043.3868086983366     
   20.000064878346819     
   20.000034436783238     
   20.000048914714796     
   877.96953190281579     
   847.61914393305619     
   770.34784211462102     
   742.42957669022644     
   1125.4901738678179     
   671.04863445162448     
   20.001700673938672     
   20.000062719023187     
   20.000179585628487     
   20.000173076102786     
   1235.4559415325098     
   897.23931058119217     
   899.67867295392068     
   973.81208922509177     
   636.89281895915622     
   729.33922828964035     
   20.000199411127923     
   20.000165780718337     
   20.000394519844377     
   572.69778077799708     
   840.09261673043875     
   570.36930553654099     
   20.000201679518685     
   20.000521513266438     
   20.000663876566463     
   637.16712978326552     
   479.00203269155298     
   774.01299000246559     
   20.000345037736256     
   622.40541179475724     
   659.47702931143601     
   20.000176290742875     
   20.000492587670276     
   669.98451660767978     
   20.000915378450134     
   20.000477613230078     
   546.45932087216636     
   20.000721714352334     
   20.000551247503534     
   20.000461446076596     
   20.001047453330866     
   572.79129047981155     
   467.01105933946508     
   489.67202578868068     
   20.000193943681669     
   398.66319306675672     
   419.54629995049982     
   20.002022692433357     
   20.002367634838624     
   20.000248181783721     
   20.002242051071363     
   723.15606163659402     
   20.004343357075680     
   20.004981261671769     
   20.005906234942305     
   20.002546481695404     
   306.15109797422377     
   20.003782794179731     
   20.003225573978337     
   413.97197571019501     
   20.005975183201855     
   20.004394890364022     
   20.000270247217561     
   20.006598378752255     
   20.005732119931569     
   20.004599291478616     
   20.010713529415877     
   20.005140938975710     
   20.019152786320259     
   20.021773075424488     
   20.045187637984913     
   20.034090018156018     
   20.029761358069454     
   20.039346337575726     
   20.058608354708173     
   20.130275099664416     
   20.068019175261878     
   20.059204894553485     
   20.101605283453392     
   20.077710869553773     
   20.280228924774125     
   20.150307656954872     
   20.131574623613584     
   20.220984543769788     
   20.170800696191669     
   20.149337854918489     
   20.088912820931672     
   20.191815811278854     
   20.156955048348440     
   20.122955443828328     
   20.115652645722342     
   20.582153893018987     
   20.321458680420669     
   20.282959849894073     
   20.465341570451354     
   20.363361383425310     
   20.194337511323493     
   402.74529286599272     
   21.175031781834104     
   20.666198797765365     
   20.588775994429888     
   20.946381090028929     
   20.746381776338641     
   20.411212718163867     
   20.808842673496038     
   20.655734273722508     
   20.496546391629725     
   20.629114803034970     
   22.299935853284172     
   21.336756742672716     
   21.187904947699963     
   21.870594708353956     
   21.493129433030830     
   20.843172476519996     
   20.525049561668943     
   24.374207982296234     
   22.602528343627803     
   22.324482069488475     
   23.589542736139446     
   22.893287380529475     
   21.674376893331758     
   22.928866618130943     
   22.431618162080710     
   21.889052871003191     
   22.347283379555776     
   28.093530970501099     
   24.924170316241696     
   24.419379350462350     
   26.703488377354017     
   25.442578255285326     
   23.228377551013249     
   251.68582527730410     
   288.47423423746233     
   261.94675767084880     
   21.978634059706312     
   29.959718558694057     
   144.65809573186951     
   304.71697711845019     
   158.56610905899601     
   144.27479750053482     
   160.71733667966734     
   34.592025255071889     
   282.66640371937314     
   254.17878045249486     
   303.55728902165635     
   29.067267019531322     
   28.174606179520087     
   82.947983282212661     
   247.94869288874506     
   137.28402414281939     
   77.908103581874911     
   162.32207512844957     
   26.052688874658283     
   124.75782592516356     
   247.05172740864006     
   31.070446748636478     
   32.195476531601663     
   338.29062634177296     
   214.51053204405522     
   193.57415870486227     
   138.89274246223664     
   48.984072893651657     
   116.94797446231874     
   41.431214935775778     
   39.608390689545679     
   91.247406627837421     
   50.283356743791479     
   342.95395986961574     
   36.263589164388286     
   34.730854864118399     
   261.77801093520873     
   41.021709899904629     
   251.54828292056212     
   94.503010747281493     
   167.41455670061313     
   48.436382890896148     
   186.42848547864247     
   185.57075330511725     
   183.66745979197353     
   243.92661686665559     
   37.737073707697547     
   167.33312138283969     
   109.85793388547114     
   108.62275797825963     
   308.70933276586521     
   103.38750872961614     
   341.98204549775249     
   70.639955239491727     
   79.589406816498169     
   91.080277732236254     
   225.38395099618648     
   355.94391642066381     
   55.018395931700965     
   196.38095940721672     
   277.21659634773761     
   20.008261539998383     
   83.421230637240129     
   89.564406642058358     
   323.19884806552625     
   20.018059967865732     
   20.010264313589776     
   72.428925263694381     
   39.666079531889956     
   95.603233968692393     
   146.14847855738751     
   446.61269898991168     
   325.27761625723133     
   240.06370993064399     
   272.37578206695127     
   152.99790621208621     
   101.13942378535852     
   68.950752036120321     
   49.160178052282575     
   37.107067450103209     
   29.761066419768586     
   25.493660380313774     
   22.995865998847790     
   21.600322251324474     
   20.827699556819585     
   20.415581592937510     
   20.199780605113755     
   20.095744249862275     
   20.043336519423001     
   20.019321398068413     
   20.014616041669854     
   20.010979594189049     
   20.013630267564171     
   20.006158553797345     
   20.007689374566095     
   20.002527873626573     
   20.000993287666216     
   20.000376404189360     
   20.000138127810040     
   20.010855567114916     
   20.000141329788189     
   20.000395531809762     
   20.001066624208640     
   20.002779939627651     
   20.006973917511097     
   20.012613487715210     
   20.016830417660174     
   20.014550090332328     
   20.022427302680697     
   20.019433604588734     
   20.051968813571612     
   20.116104247020033     
   20.250981156463677     
   20.525465598011412     
   21.065626381583165     
   22.095048911793654     
   24.000892686531017     
   27.431642802493982     
   33.448670286735243     
   43.764727464389232     
   61.139571167681019     
   90.014209690287501     
   103.28155128157303     
   95.898525789577278     
   119.06572197043117     
   137.28676710672249     
   213.94361464174673     
   337.06238291486898     
   533.20754715377848     
   102.92253826045196     
   216.61209359053126     
   227.62555372274804     
   161.02840124390963     
   20.008073005895572     
   118.46766614247903     
   293.07933625460277     
   69.633062176809560     
   126.31632975096703     
   54.214604806174577     
   20.009371930198778     
   61.158813486395346     
   109.58774023471533     
   265.41937755043870     
   72.986850436705907     
   359.45995816451324     
   50.518437290614678     
   79.816332193775821     
   169.20191167739358     
   124.79017047070855     
   64.910420780990307     
   120.27825298751259     
   55.121812210459169     
   57.324375995890215     
   51.254556128869822     
   70.481307863713667     
   61.965433508705615     
   138.81807651224634     
   292.01357260850557     
   180.01065822638208     
   126.90897260298692     
   56.662021173975099     
   40.294314274785570     
   68.990546249728268     
   119.86649131664666     
   82.501480251728083     
   63.897075014544981     
   78.530065436976713     
   45.403056622411036     
   104.58868010789591     
   48.503175221202341     
   49.362065555361184     
   41.436237304288291     
   45.893779169424604     
   44.356155576749543     
   156.41294209910512     
   49.282734852751140     
   158.22526769882603     
   37.469505478755082     
   43.808509934703608     
   102.31516293852182     
   40.141970769554028     
   29.333444431119826     
   37.472009809962209     
   104.65972730776626     
   94.611498143076844     
   108.59337498501924     
   36.543686117010516     
   31.376793589760524     
   193.17811743533528     
   29.832322327086370     
   224.55404157891132     
   34.628607834368253     
   33.828304023519252     
   25.110072153689682     
   29.699928345547175     
   32.059634667276299     
   215.99594538212531     
   29.237535551058784     
   31.353080615665220     
   29.762225248334627     
   29.946345199923492     
   25.413531732535475     
   29.290260122094953     
   26.214827108247594     
   28.179974426067570     
   27.641229440148106     
   26.706685120719946     
   22.697355956804540     
   25.333109604978308     
   26.248259674802853     
   25.455019524037329     
   25.074394343602126     
   22.898638579345882     
   23.319325874061562     
   24.444297098159950     
   24.134920644887490     
   23.606632507365699     
   21.409690923264318     
   22.834870109073176     
   23.346987617986077     
   22.904589961201722     
   22.692020346032969     
   21.506460278772000     
   21.748192065153656     
   22.347376482470899     
   22.174053254259196     
   21.890055115003992     
   20.707477223082059     
   21.466419919188294     
   21.745839134894709     
   21.510239923361507     
   21.392911416626863     
   20.768003835566446     
   20.885278485037563     
   21.207711043161417     