# vtk DataFile Version 2.0
 temperature
 ASCII
 DATASET UNSTRUCTURED_GRID
 POINTS         773  double
   0.0000000000000000        0.0000000000000000        0.0000000000000000     
   3.5000000000000000        0.0000000000000000        0.0000000000000000     
   3.5000000000000000        40.000000000000000        0.0000000000000000     
   0.0000000000000000        40.000000000000000        0.0000000000000000     
  0.43750000000000000        0.0000000000000000        0.0000000000000000     
  0.87500000000000000        0.0000000000000000        0.0000000000000000     
   1.3125000000000000        0.0000000000000000        0.0000000000000000     
   1.7500000000000000        0.0000000000000000        0.0000000000000000     
   2.1875000000000000        0.0000000000000000        0.0000000000000000     
   2.6250000000000000        0.0000000000000000        0.0000000000000000     
   3.0625000000000000        0.0000000000000000        0.0000000000000000     
   3.5000000000000000       0.50000000000000000        0.0000000000000000     
   3.5000000000000000        1.0000000000000000        0.0000000000000000     
   3.5000000000000000        1.5000000000000000        0.0000000000000000     
   3.5000000000000000        2.0000000000000000        0.0000000000000000     
   3.5000000000000000        2.5000000000000000        0.0000000000000000     
   3.5000000000000000        3.0000000000000000        0.0000000000000000     
   3.5000000000000000        3.5000000000000000        0.0000000000000000     
   3.5000000000000000        4.0000000000000000        0.0000000000000000     
   3.5000000000000000        4.5000000000000000        0.0000000000000000     
   3.5000000000000000        5.0000000000000000        0.0000000000000000     
   3.5000000000000000        5.5000000000000000        0.0000000000000000     
   3.5000000000000000        6.0000000000000000        0.0000000000000000     
   3.5000000000000000        6.5000000000000000        0.0000000000000000     
   3.5000000000000000        7.0000000000000000        0.0000000000000000     
   3.5000000000000000        7.5000000000000000        0.0000000000000000     
   3.5000000000000000        8.0000000000000000        0.0000000000000000     
   3.5000000000000000        8.5000000000000000        0.0000000000000000     
   3.5000000000000000        9.0000000000000000        0.0000000000000000     
   3.5000000000000000        9.5000000000000000        0.0000000000000000     
   3.5000000000000000        10.000000000000000        0.0000000000000000     
   3.5000000000000000        10.500000000000000        0.0000000000000000     
   3.5000000000000000        11.000000000000000        0.0000000000000000     
   3.5000000000000000        11.500000000000000        0.0000000000000000     
   3.5000000000000000        12.000000000000000        0.0000000000000000     
   3.5000000000000000        12.500000000000000        0.0000000000000000     
   3.5000000000000000        13.000000000000000        0.0000000000000000     
   3.5000000000000000        13.500000000000000        0.0000000000000000     
   3.5000000000000000        14.000000000000000        0.0000000000000000     
   3.5000000000000000        14.500000000000000        0.0000000000000000     
   3.5000000000000000        15.000000000000000        0.0000000000000000     
   3.5000000000000000        15.500000000000000        0.0000000000000000     
   3.5000000000000000        16.000000000000000        0.0000000000000000     
   3.5000000000000000        16.500000000000000        0.0000000000000000     
   3.5000000000000000        17.000000000000000        0.0000000000000000     
   3.5000000000000000        17.500000000000000        0.0000000000000000     
   3.5000000000000000        18.000000000000000        0.0000000000000000     
   3.5000000000000000        18.500000000000000        0.0000000000000000     
   3.5000000000000000        19.000000000000000        0.0000000000000000     
   3.5000000000000000        19.500000000000000        0.0000000000000000     
   3.5000000000000000        20.000000000000000        0.0000000000000000     
   3.5000000000000000        20.500000000000000        0.0000000000000000     
   3.5000000000000000        21.000000000000000        0.0000000000000000     
   3.5000000000000000        21.500000000000000        0.0000000000000000     
   3.5000000000000000        22.000000000000000        0.0000000000000000     
   3.5000000000000000        22.500000000000000        0.0000000000000000     
   3.5000000000000000        23.000000000000000        0.0000000000000000     
   3.5000000000000000        23.500000000000000        0.0000000000000000     
   3.5000000000000000        24.000000000000000        0.0000000000000000     
   3.5000000000000000        24.500000000000000        0.0000000000000000     
   3.5000000000000000        25.000000000000000        0.0000000000000000     
   3.5000000000000000        25.500000000000000        0.0000000000000000     
   3.5000000000000000        26.000000000000000        0.0000000000000000     
   3.5000000000000000        26.500000000000000        0.0000000000000000     
   3.5000000000000000        27.000000000000000        0.0000000000000000     
   3.5000000000000000        27.500000000000000        0.0000000000000000     
   3.5000000000000000        28.000000000000000        0.0000000000000000     
   3.5000000000000000        28.500000000000000        0.0000000000000000     
   3.5000000000000000        29.000000000000000        0.0000000000000000     
   3.5000000000000000        29.500000000000000        0.0000000000000000     
   3.5000000000000000        30.000000000000000        0.0000000000000000     
   3.5000000000000000        30.500000000000000        0.0000000000000000     
   3.5000000000000000        31.000000000000000        0.0000000000000000     
   3.5000000000000000        31.500000000000000        0.0000000000000000     
   3.5000000000000000        32.000000000000000        0.0000000000000000     
   3.5000000000000000        32.500000000000000        0.0000000000000000     
   3.5000000000000000        33.000000000000000        0.0000000000000000     
   3.5000000000000000        33.500000000000000        0.0000000000000000     
   3.5000000000000000        34.000000000000000        0.0000000000000000     
   3.5000000000000000        34.500000000000000        0.0000000000000000     
   3.5000000000000000        35.000000000000000        0.0000000000000000     
   3.5000000000000000        35.500000000000000        0.0000000000000000     
   3.5000000000000000        36.000000000000000        0.0000000000000000     
   3.5000000000000000        36.500000000000000        0.0000000000000000     
   3.5000000000000000        37.000000000000000        0.0000000000000000     
   3.5000000000000000        37.500000000000000        0.0000000000000000     
   3.5000000000000000        38.000000000000000        0.0000000000000000     
   3.5000000000000000        38.500000000000000        0.0000000000000000     
   3.5000000000000000        39.000000000000000        0.0000000000000000     
   3.5000000000000000        39.500000000000000        0.0000000000000000     
   3.0625000000000000        40.000000000000000        0.0000000000000000     
   2.6250000000000000        40.000000000000000        0.0000000000000000     
   2.1875000000000000        40.000000000000000        0.0000000000000000     
   1.7500000000000000        40.000000000000000        0.0000000000000000     
   1.3125000000000000        40.000000000000000        0.0000000000000000     
  0.87500000000000000        40.000000000000000        0.0000000000000000     
  0.43750000000000000        40.000000000000000        0.0000000000000000     
   0.0000000000000000        39.500000000000000        0.0000000000000000     
   0.0000000000000000        39.000000000000000        0.0000000000000000     
   0.0000000000000000        38.500000000000000        0.0000000000000000     
   0.0000000000000000        38.000000000000000        0.0000000000000000     
   0.0000000000000000        37.500000000000000        0.0000000000000000     
   0.0000000000000000        37.000000000000000        0.0000000000000000     
   0.0000000000000000        36.500000000000000        0.0000000000000000     
   0.0000000000000000        36.000000000000000        0.0000000000000000     
   0.0000000000000000        35.500000000000000        0.0000000000000000     
   0.0000000000000000        35.000000000000000        0.0000000000000000     
   0.0000000000000000        34.500000000000000        0.0000000000000000     
   0.0000000000000000        34.000000000000000        0.0000000000000000     
   0.0000000000000000        33.500000000000000        0.0000000000000000     
   0.0000000000000000        33.000000000000000        0.0000000000000000     
   0.0000000000000000        32.500000000000000        0.0000000000000000     
   0.0000000000000000        32.000000000000000        0.0000000000000000     
   0.0000000000000000        31.500000000000000        0.0000000000000000     
   0.0000000000000000        31.000000000000000        0.0000000000000000     
   0.0000000000000000        30.500000000000000        0.0000000000000000     
   0.0000000000000000        30.000000000000000        0.0000000000000000     
   0.0000000000000000        29.500000000000000        0.0000000000000000     
   0.0000000000000000        29.000000000000000        0.0000000000000000     
   0.0000000000000000        28.500000000000000        0.0000000000000000     
   0.0000000000000000        28.000000000000000        0.0000000000000000     
   0.0000000000000000        27.500000000000000        0.0000000000000000     
   0.0000000000000000        27.000000000000000        0.0000000000000000     
   0.0000000000000000        26.500000000000000        0.0000000000000000     
   0.0000000000000000        26.000000000000000        0.0000000000000000     
[...]
 CELL_DATA        1368
 SCALARS T double
 LOOKUP_TABLE default
   20.456007912448978     
   23.412654005113783     
   1674.0895057722703     
   40.340118893440632     
   20.000000032056274     
   20.974468263682738     
   1277.4695776174881     
   20.881209686405576     
   20.043058457918701     
   20.720933209568660     
   20.072013051378882     
   34.555838113828855     
   20.659772687046662     
   42.188718726140749     
   35.710049949651520     
   1210.3654081815391     
   1675.1857397772781     
   20.163886058958397     
   20.144896084493631     
   21.544041143911965     
   20.117389095954973     
   20.005154890236842     
   1735.3616784834257     
   20.009175613616367     
   20.384358973730276     
   23.431017735251068     
   20.102981295369688     
   21.156286157269665     
   20.521037715531477     
   20.050956165310751     
   21.551074607905363     
   20.000000062852639     
   22.940147331548296     
   23.698989639218873     
   23.682426255093212     
   20.000000051615530     
   20.267819280640968     
   20.022301463512527     
   20.083754135447187     
   20.019416840543386     
   20.013072750426019     
   20.656313084708231     
   20.015355709529935     
   40.822437633099206     
   20.197727617647683     
   428.03580836927398     
   420.42277208448525     
   20.546702146460682     
   20.733715483714615     
   693.06777299612440     
   697.34407975891418     
   20.059123498398545     
   20.272939371100865     
   20.000000048189246     
   1707.2200076414256     
   20.000000041065853     
   20.000000134674902     
   20.004521026978125     
   20.002414108497632     
   20.006309906221805     
   20.000000181048101     
   39.544540216371878     
   20.010681874590748     
   20.000000398935892     
   21.313423391201411     
   21.698185931254351     
   20.037515278531867     
   21.652742480517386     
   20.083867428537147     
   20.116206670882171     
   20.000000107465080     
   1675.2763023873274     
   20.000000229084538     
   20.104829869211351     
   20.027140260285421     
   20.039351969807061     
   20.000000630210085     
   20.000001810109783     
   20.000000084074767     
   403.62240002201526     
   20.007379079292825     
   20.002123586677033     
   242.29264575727524     
   20.001114092113035     
   147.26281275418063     
   20.223371741101303     
   20.301031850779623     
   399.78228631658271     
   20.003660635021269     
   857.54022232370528     
   20.010386283581337     
   20.015058726897212     
   57.852377045593478     
   20.000007763697699     
   801.44807066372255     
   20.000393343506730     
   39.486869275056193     
   20.000002797327220     
   20.000498795904083     
   20.000000843658501     
   240.66288307101431     
   20.000000505165673     
   210.66036807794359     
   213.52677521798594     
   20.013425983527625     
   20.003070601505563     
   20.000000081796774     
   20.038462843028054     
   20.000000065950381     
   20.000001039610392     
   26.143024914540451     
   515.10326445101452     
   25.080789570117005     
   20.000202448306741     
   20.000000308539914     
   20.000000032301969     
   130.58531724551156     
   22.307603640937721     
   132.06427681406515     
   20.000073731809422     
   20.000000508168434     
   20.000181581629938     
   20.001984227609242     
   146.31292531870864     
   21.001565722452263     
   301.33495887782328     
   20.030870075925609     
   20.042503841059879     
   20.001425016627625     
   20.302256804329122     
   20.000000108027578     
   20.000258195239464     
   525.46016413558175     
   20.411013400186668     
   20.000002266737880     
   20.000011835352645     
   20.159401333716080     
   82.775693385824283     
   1318.8210002696760     
   83.664623883139654     
   1006.0587051031027     
   478.04468737299533     
   183.12612221159489     
   20.000308483184526     
   20.000950230013729     
   20.000058676613513     
   500.78322249370285     
   20.000631055807386     
   20.000001413140165     
   20.000002284941573     
   20.000072198656135     
   305.22664829155758     
   20.000890699962145     
   54.404159874203728     
   54.783373785094120     
   20.000003703808435     
   20.000050884807198     
   111.68849797419253     
   20.001626483963182     
   20.000009587814692     
   20.000004542398301     
   20.000000300608587     
   36.640967113111714     
   57.508240435026217     
   20.004532986950132     
   21.285525708551202     
   20.000009697930274     
   20.000000029609780     
   240.19678843469768     
   185.38659034851406     
   20.000140219984932     
   20.000028550612814     
   20.000006078583098     
   39.320774966448624     
   46.264454292445478     
   20.000038194284539     
   1010.6168856791248     
   20.224526243697589     
   112.68707322257467     
   20.000015505419196     
   158.32658758236283     
   150.20123641495431     
   33.224095400885197     
   20.000018735116708     
   31.324368658385652     
   20.000076495806020     
   20.001570327660183     
   20.002337791693140     
   53.111041033299635     
   20.000000078827984     
   255.27353295381639     
   20.031297925802129     
   24.444925971020659     
   24.423281395231939     
   26.945355703903488     
   20.000000039543028     
   576.43606770921656     
   20.000092052195530     
   20.000000070375869     
   20.000024707578781     
   24.973863020905025     
   20.000039041867783     
   99.159171243276447     
   20.000705515838973     
   20.001055255588792     
   20.000177397820526     
   94.271667698752424     
   22.554655506574971     
   20.000029625631036     
   20.000000087074568     
   20.000046791083914     
   20.000000166880159     
   23.207893435362212     
   20.000000034588826     
   20.000213254545653     
   20.000018061120922     
   20.000413056165378     
   20.000742565703622     
   20.043183019078281     
   20.000060961925008     
   22.257809284369305     
   20.000000099342717     
   20.001432196107693     
   51.059838958591591     
   20.000466853208685     
   46.676869621760538     
   20.000497153895857     
   20.000011377866439     
   20.000000055196850     
   20.000014089461626     
   20.000108985343630     
   20.000000132456034     
   20.979235565332718     
   20.000001376127386     
   21.419940456433817     
   20.000008878382101     
   20.001413836606659     
   20.000000061146952     
   20.401643727470088     
   20.001686314658151     
   29.884711305154870     
   33.398531569411233     
   320.37549689227836     
   20.481210390058624     
   48.820364311835995     
   63.888498516004361     
   1432.1485488753083     
   61.081202208456865     
   20.155657532413404     
   20.000007119851990     
   20.000002734126262     
   20.004590677681950     
   20.000114300197112     
   20.596918335763522     
   1513.4628105559066     
   20.000002102143249     
   20.000005543532783     
   20.000022194449109     
   20.005421018411688     
   20.000137662035954     
   20.000000165133464     
   735.41270776291003     
   568.23476471427966     
   20.014097222083929     
   20.002449591271482     
   20.000421047827217     
   20.237948795057260     
   20.000000160520315     
   20.016499275769295     
   1457.2149510176350     
   27.127198111356186     
   20.074528948526037     
   20.000088495350845     
   20.000122214952857     
   20.000078636979993     
   20.000000167183455     
   20.041005023670724     
   20.000000152077742     
   1378.1701150893839     
   1187.8397412802224     
   20.000000025426434     
   1248.8522165740280     
   20.000000188202346     
   20.047563128286374     
   1364.0179433223914     
   20.002115644269860     
   28.689707696080511     
   863.62006921690568     
   1386.7044444202488     
   20.000000702653047     
   23.307286716079826     
   20.000000051025712     
   20.000004442478929     
   20.000084624812921     
   20.000132226446997     
   20.000001678639801     
   20.000000080848725     
   20.000000775720345     
   20.000000066664036     
   916.31121554311949     
   21.465149606817288     
   20.000003418002695     
   652.31829736724001     
   20.000000058474239     
   20.000001278769432     
   20.616563138569269     
   20.245897821233040     
   20.000000031807435     
   20.000000048672153     
   1172.5662486533149     
   20.000000117810117     
   1286.8278051242519     
   1065.7391489843758     
   20.000117984764806     
   20.000091289098449     
   1475.5944927025746     
   28.204183660504334     
   325.00071557904448     
   20.009300867535686     
   20.000000075117864     
   20.000000041927969     
   20.000000182176045     
   774.34420175610558     
   20.000037659995144     
   20.000000115656668     
   20.000005962934804     
   20.000031371240372     
   20.000944064736995     
   1314.7257036750411     
   761.31524039392923     
   20.000000070398606     
   20.000000142500468     
   45.350127269520684     
   1194.6236572838754     
   20.000034621971746     
   20.000000281029152     
   1209.3109933051192     
   1284.6316459290088     
   20.001118599880535     
   20.000271972167980     
   1001.7732301772398     
   20.000000120704069     
   20.000000753261457     
   20.000000375879569     
   20.000000454474854     
   906.33462350148932     
   20.000325246700605     
   20.000000620809747     
   20.000000860401926     
   27.603951243982266     
   25.515597676898658     
   20.000000328587763     
   20.000000098165263     
   20.001655499497794     
   20.000000238739599     
   1135.6514204004752     
   20.000000542444099     
   1032.6343680655605     
   20.000000256042682     
   853.22221991959441     
   20.000000091207088     
   968.18246274916396     
   771.21794050658946     
   1027.7693526229461     
   1202.8001149016372     
   1029.0162736298666     
   20.000000221154743     
   20.000000100439657     
   20.000000198252565     
   866.30585837027456     
   831.90180300440011     
   753.95918680646162     
   726.75334169468624     
   1112.3630949759186     
   654.96035985385140     
   20.000032626770807     
   20.000000274334255     
   20.000001159724071     
   20.000001029920401     
   1229.7372246905466     
   880.47875010025109     
   885.24057035091323     
   958.22370169775320     
   621.75103382162627     
   711.82318838661024     
   20.000001102882578     
   20.000000844461130     
   20.000003726334164     
   550.71086092076928     
   822.30371073872698     
   548.63704176361864     
   20.000001410284728     
   20.000006142062762     
   20.000008397934913     
   619.91528919226278     
   462.47629658572851     
   755.22468819421681     
   20.000003259306595     
   601.07979459780540     
   641.44941532196242     
   20.000001232199601     
   20.000005006186143     
   649.50508753993154     
   20.000013349462328     
   20.000005216556318     
   527.84309152729531     
   20.000009815713732     
   20.000004816051909     
   20.000003727633171     
   20.000015271549934     
   555.27177459323843     
   447.18002470427678     
   470.99846600128205     
   20.000001466031343     
   377.98760644595899     
   399.87157287345099     
   20.000031536051846     
   20.000039633337853     
   20.000002020784773     
   20.000039801002618     
   703.44849300008320     
   20.000095498484097     
   20.000116830877257     
   20.000148616437961     
   20.000048512482064     
   292.13340492150445     
   20.000077744914886     
   20.000061900202539     
   392.49784455176723     
   20.000150290489522     
   20.000096614747463     
   20.000002369976997     
   20.000215844009777     
   20.000187325887811     
   20.000141252743216     
   20.000349432525745     
   20.000120902922646     
   20.000802965882404     
   20.000968582002031     
   20.002716006299430     
   20.001818732203702     
   20.001496734415813     
   20.002227618828258     
   20.003950236547205     
   20.012229675092044     
   20.004848102683439     
   20.003987332165721     
   20.008567608046871     
   20.005863436470264     
   20.035867216946517     
   20.014867865922980     
   20.012341855524109     
   20.025590840466364     
   20.017821918727115     
   20.019098677201356     
   20.007085372198009     
   20.027142649042027     
   20.021160567648813     
   20.014991082647288     
   20.013339021145455     
   20.099318879527384     
   20.043195508125532     
   20.036187370523724     
   20.072427861746316     
   20.051320180230039     
   20.021340762012645     
   379.90849886879693     
   20.261593231740147     
   20.119007384817241     
   20.100423516569784     
   20.193432925730853     
   20.139431562645775     
   20.060904090346053     
   20.196970119757314     
   20.152599084203175     
   20.101174774889486     
   20.139998793507143     
   20.653328032404495     
   20.310400040589144     
   20.264378487349418     
   20.491500573515669     
   20.361506253271116     
   20.164789054130264     
   20.112331907949638     
   21.549997418192820     
   20.768146103615614     
   20.660082687632563     
   21.185292295065963     
   20.887102288054709     
   20.422189115309774     
   21.114934623580442     
   20.893788411731247     
   20.621831291143959     
   20.831570247106374     
   23.496450356152742     
   21.805933146487739     
   21.565413886283171     
   22.719617985660033     
   22.064810213114942     
   21.026937881563562     
   231.92284274806329     
   265.52258775634192     
   243.02100444023219     
   20.678576112751081     
   24.568734528665289     
   126.79986081932287     
   282.32740825622847     
   137.37453594270971     
   123.95771471916252     
   141.85413203185698     
   27.511224926116597     
   265.49676988412779     
   230.72340411053040     
   284.81826621397153     
   24.038742406932474     
   23.530166430091988     
   68.505606183244169     
   225.11767855072793     
   116.98031720146466     
   64.663979298551368     
   140.53625232356819     
   22.374282890204757     
   105.42800338541377     
   230.58435941633780     
   25.236741949280781     
   25.941664153232360     
   315.52290014478291     
   191.98886076893132     
   171.82129404325661     
   119.46814752462559     
   38.918404386346417     
   101.17587703314240     
   32.219624666950857     
   31.158702683771509     
   75.725297641627023     
   40.152659166236496     
   323.68822965603272     
   28.596087580064570     
   27.579012222478884     
   239.33289032267604     
   32.255388736338993     
   230.07738894743838     
   77.354764066653900     
   149.02604156310832     
   38.948199888594161     
   165.58875566498529     
   166.29812471593453     
   161.70238416042818     
   226.30814706708142     
   29.611196633536046     
   146.18564701199841     
   90.307499785860273     
   90.311342641083556     
   287.92037984437064     
   88.846813733936742     
   320.79621262498722     
   58.425599327827818     
   65.161702010309170     
   74.729558761610633     
   203.13127513834283     
   333.79490513849237     
   43.353166310503845     
   175.85537880278747     
   266.12447793534085     
   20.000326772833429     
   68.065045900957031     
   72.690903480107949     
   311.40951521114022     
   20.000965157711025     
   20.000431032022551     
   57.757248869368745     
   30.950180501392950     
   79.124300445599175     
   126.83660648328919     
   437.89368538577844     
   314.77729845957043     
   228.35249664644655     
   259.96510551090012     
   140.87125327894449     
   89.638215972766602     
   58.950141985461457     
   41.074371484555691     
   30.982247127188369     
   25.443394948334156     
   22.601405100853700     
   21.178182696149765     
   20.510308045393298     
   20.209154906349426     
   20.081489956680727     
   20.029655563255659     
   20.010556742356201     
   20.003467446354900     
   20.001097168359060     
   20.000737321544008     
   20.000491480923223     
   20.000647065858264     
   20.000214978292394     
   20.000285121599070     
   20.000059669550911     
   20.000015560005401     
   20.000003830540170     
   20.000000896446828     
   20.000354220231177     
   20.000000668725573     
   20.000002977262074     
   20.000012511894163     
   20.000049893557478     
   20.000187410252543     
   20.000438680042596     
   20.000663062801703     
   20.000539068585045     
   20.000999585043662     
   20.000815622172542     
   20.003309132204013     
   20.010331675455479     
   20.030555039983636     
   20.085654626824134     
   20.227484060305031     
   20.572712164521459     
   21.369254067140819     
   23.112190078596988     
   26.735413758596156     
   33.910620491340488     
   47.510132295887587     
   72.313503825747688     
   84.259406125178060     
   77.612745179977836     
   98.771509054198930     
   115.83937600734205     
   189.89052614688029     
   312.39743610137816     
   510.56093884932505     
   84.817598871185979     
   195.34623123022061     
   206.81206698290683     
   140.80175400778575     
   20.000231590439668     
   99.215966814373630     
   271.62139586118849     
   55.728968057745021     
   107.84757452742990     
   42.346273168061131     
   20.000286486228692     
   48.031711969598440     
   92.085872454739388     
   244.47909815925854     
   58.826460734363195     
   339.05825475460051     
   39.506292822264783     
   64.604659718898290     
   149.18703716993406     
   107.66548484100971     
   51.828939669278739     
   101.78393685486890     
   43.914195015637411     
   45.404820941867250     
   40.431736904040328     
   55.702390148178111     
   49.115542220458032     
   120.61934735064490     
   272.48680621301173     
   162.76555106591169     
   106.12747957349748     
   44.451439651268949     
   32.128661408047101     
   54.639032786670136     
   102.53986742477886     
   66.572335958050928     
   50.455438827043047     
   62.899286149692479     
   35.529636964005967     
   87.121506914996118     
   37.828628790926722     
   38.368197630565277     
   32.795708329327930     
   36.194313741958219     
   34.897953513299093     
   139.32888544354267     
   38.722911762799498     
   142.02332004386551     
   29.694260537722716     
   34.243831461204593     
   87.118578509698807     
   31.749413641140539     
   24.533939665023393     
   29.906043958969434     
   88.141116947024699     
   79.208912507037354     
   92.295522280185963     
   29.184556744813673     
   25.833407760497067     
   174.42642469386809     
   24.893264214363782     
   205.57466730994426     
   27.904790227479406     
   27.295601376977135     
   22.066945252781409     
   24.975088474820044     
   26.174607343436428     
   196.37817629113883     
   24.616287401095789     
   25.666502546866770     
   24.602636644392305     
   24.820710303633454     
   22.254504367660388     
   24.379120026420562     
   22.672165794625023     
   23.741371967349416     
   23.394812591006289     
   22.888150170480984     
   20.887776452751034     
   22.085480963924486     
   22.606100526780498     
   22.201642670851189     
   21.984098745498152     
   20.988491980502861     
   21.170372592197086     
   21.679834559614903     
   21.512283533395923     
   21.273355883967277     
   20.368906440696030     
   20.898495643477037     
   21.140249262530507     
   20.953487140852417     
   20.853040891714834     
   20.408894048991218     
   20.493731149901581     
   20.716340961937171     
   20.639443389474593     
   20.534775297020687     
   20.143958718173995     
   20.368212962836676     
   20.474735775847666     
   20.394369663695617     
   20.349715505231750     
   20.163404335090828     
   20.195895935522312     
   20.290894512124275     