# vtk DataFile Version 2.0
 temperature
 ASCII
 DATASET UNSTRUCTURED_GRID
 POINTS         773  double
   0.0000000000000000        0.0000000000000000        0.0000000000000000     
   3.5000000000000000        0.0000000000000000        0.0000000000000000     
   3.5000000000000000        40.000000000000000        0.0000000000000000     
   0.0000000000000000        40.000000000000000        0.0000000000000000     
  0.43750000000000000        0.0000000000000000        0.0000000000000000     
  0.87500000000000000        0.0000000000000000        0.0000000000000000     
   1.3125000000000000        0.0000000000000000        0.0000000000000000     
   1.7500000000000000        0.0000000000000000        0.0000000000000000     
   2.1875000000000000        0.0000000000000000        0.0000000000000000     
   2.6250000000000000        0.0000000000000000        0.0000000000000000     
   3.0625000000000000        0.0000000000000000        0.0000000000000000     
   3.5000000000000000       0.50000000000000000        0.0000000000000000     
   3.5000000000000000        1.0000000000000000        0.0000000000000000     
   3.5000000000000000        1.5000000000000000        0.0000000000000000     
   3.5000000000000000        2.0000000000000000        0.0000000000000000     
   3.5000000000000000        2.5000000000000000        0.0000000000000000     
   3.5000000000000000        3.0000000000000000        0.0000000000000000     
   3.5000000000000000        3.5000000000000000        0.0000000000000000     
   3.5000000000000000        4.0000000000000000        0.0000000000000000     
   3.5000000000000000        4.5000000000000000        0.0000000000000000     
   3.5000000000000000        5.0000000000000000        0.0000000000000000     
   3.5000000000000000        5.5000000000000000        0.0000000000000000     
   3.5000000000000000        6.0000000000000000        0.0000000000000000     
   3.5000000000000000        6.5000000000000000        0.0000000000000000     
   3.5000000000000000        7.0000000000000000        0.0000000000000000     
   3.5000000000000000        7.5000000000000000        0.0000000000000000     
   3.5000000000000000        8.0000000000000000        0.0000000000000000     
   3.5000000000000000        8.5000000000000000        0.0000000000000000     
   3.5000000000000000        9.0000000000000000        0.0000000000000000     
   3.5000000000000000        9.5000000000000000        0.0000000000000000     
   3.5000000000000000        10.000000000000000        0.0000000000000000     
   3.5000000000000000        10.500000000000000        0.0000000000000000     
   3.5000000000000000        11.000000000000000        0.0000000000000000     
   3.5000000000000000        11.500000000000000        0.0000000000000000     
   3.5000000000000000        12.000000000000000        0.0000000000000000     
   3.5000000000000000        12.500000000000000        0.0000000000000000     
   3.5000000000000000        13.000000000000000        0.0000000000000000     
   3.5000000000000000        13.500000000000000        0.0000000000000000     
   3.5000000000000000        14.000000000000000        0.0000000000000000     
   3.5000000000000000        14.500000000000000        0.0000000000000000     
   3.5000000000000000        15.000000000000000        0.0000000000000000     
   3.5000000000000000        15.500000000000000        0.0000000000000000     
   3.5000000000000000        16.000000000000000        0.0000000000000000     
   3.5000000000000000        16.500000000000000        0.0000000000000000     
   3.5000000000000000        17.000000000000000        0.0000000000000000     
   3.5000000000000000        17.500000000000000        0.0000000000000000     
   3.5000000000000000        18.000000000000000        0.0000000000000000     
   3.5000000000000000        18.500000000000000        0.0000000000000000     
   3.5000000000000000        19.000000000000000        0.0000000000000000     
   3.5000000000000000        19.500000000000000        0.0000000000000000     
   3.5000000000000000        20.000000000000000        0.0000000000000000     
   3.5000000000000000        20.500000000000000        0.0000000000000000     
   3.5000000000000000        21.000000000000000        0.0000000000000000     
   3.5000000000000000        21.500000000000000        0.0000000000000000     
   3.5000000000000000        22.000000000000000        0.0000000000000000     
   3.5000000000000000        22.500000000000000        0.0000000000000000     
   3.5000000000000000        23.000000000000000        0.0000000000000000     
   3.5000000000000000        23.500000000000000        0.0000000000000000     
   3.5000000000000000        24.000000000000000        0.0000000000000000     
   3.5000000000000000        24.500000000000000        0.0000000000000000     
   3.5000000000000000        25.000000000000000        0.0000000000000000     
   3.5000000000000000        25.500000000000000        0.0000000000000000     
   3.5000000000000000        26.000000000000000        0.0000000000000000     
   3.5000000000000000        26.500000000000000        0.0000000000000000     
   3.5000000000000000        27.000000000000000        0.0000000000000000     
   3.5000000000000000        27.500000000000000        0.0000000000000000     
   3.5000000000000000        28.000000000000000        0.0000000000000000     
   3.5000000000000000        28.500000000000000        0.0000000000000000     
   3.5000000000000000        29.000000000000000        0.0000000000000000     
   3.5000000000000000        29.500000000000000        0.0000000000000000     
   3.5000000000000000        30.000000000000000        0.0000000000000000     
   3.5000000000000000        30.500000000000000        0.0000000000000000     
   3.5000000000000000        31.000000000000000        0.0000000000000000     
   3.5000000000000000        31.500000000000000        0.0000000000000000     
   3.5000000000000000        32.000000000000000        0.0000000000000000     
   3.5000000000000000        32.500000000000000        0.0000000000000000     
   3.5000000000000000        33.000000000000000        0.0000000000000000     
   3.5000000000000000        33.500000000000000        0.0000000000000000     
   3.5000000000000000        34.000000000000000        0.0000000000000000     
   3.5000000000000000        34.500000000000000        0.0000000000000000     
   3.5000000000000000        35.000000000000000        0.0000000000000000     
   3.5000000000000000        35.500000000000000        0.0000000000000000     
   3.5000000000000000        36.000000000000000        0.0000000000000000     
   3.5000000000000000        36.500000000000000        0.0000000000000000     
   3.5000000000000000        37.000000000000000        0.0000000000000000     
   3.5000000000000000        37.500000000000000        0.0000000000000000     
   3.5000000000000000        38.000000000000000        0.0000000000000000     
   3.5000000000000000        38.500000000000000        0.0000000000000000     
   3.5000000000000000        39.000000000000000        0.0000000000000000     
   3.5000000000000000        39.500000000000000        0.0000000000000000     
   3.0625000000000000        40.000000000000000        0.0000000000000000     
   2.6250000000000000        40.000000000000000        0.0000000000000000     
   2.1875000000000000        40.000000000000000        0.0000000000000000     
   1.7500000000000000        40.000000000000000        0.0000000000000000     
   1.3125000000000000        40.000000000000000        0.0000000000000000     
  0.87500000000000000        40.000000000000000        0.0000000000000000     
  0.43750000000000000        40.000000000000000        0.0000000000000000     
   0.0000000000000000        39.500000000000000        0.0000000000000000     
   0.0000000000000000        39.000000000000000        0.0000000000000000     
   0.0000000000000000        38.500000000000000        0.0000000000000000     
   0.0000000000000000        38.000000000000000        0.0000000000000000     
   0.0000000000000000        37.500000000000000        0.0000000000000000     
   0.0000000000000000        37.000000000000000        0.0000000000000000     
   0.0000000000000000        36.500000000000000        0.0000000000000000     
   0.0000000000000000        36.000000000000000        0.0000000000000000     
   0.0000000000000000        35.500000000000000        0.0000000000000000     
   0.0000000000000000        35.000000000000000        0.0000000000000000     
   0.0000000000000000        34.500000000000000        0.0000000000000000     
   0.0000000000000000        34.000000000000000        0.0000000000000000     
   0.0000000000000000        33.500000000000000        0.0000000000000000     
   0.0000000000000000        33.000000000000000        0.0000000000000000     
   0.0000000000000000        32.500000000000000        0.0000000000000000     
   0.0000000000000000        32.000000000000000        0.0000000000000000     
   0.0000000000000000        31.500000000000000        0.0000000000000000     
   0.0000000000000000        31.000000000000000        0.0000000000000000     
   0.0000000000000000        30.500000000000000        0.0000000000000000     
   0.0000000000000000        30.000000000000000        0.0000000000000000     
   0.0000000000000000        29.500000000000000        0.0000000000000000     
   0.0000000000000000        29.000000000000000        0.0000000000000000     
   0.0000000000000000        28.500000000000000        0.0000000000000000     
   0.0000000000000000        28.000000000000000        0.0000000000000000     
   0.0000000000000000        27.500000000000000        0.0000000000000000     
   0.0000000000000000        27.000000000000000        0.0000000000000000     
   0.0000000000000000        26.500000000000000        0.0000000000000000     
   0.0000000000000000        26.000000000000000        0.0000000000000000     
[...]
 CELL_DATA        1368
 SCALARS T double
 LOOKUP_TABLE default
   20.010139855153611     
   20.245725323701102     
   1653.0328802144618     
   25.603381814947074     
   20.000000000000000     
   20.033764478426342     
   1259.0316338063894     
   20.027397597160682     
   20.000174256077099     
   20.020236893298154     
   20.000413564108669     
   22.936004165012939     
   20.014937810287098     
   26.072146599403560     
   23.347095562522124     
   1191.5265716063079     
   1653.6244215241957     
   20.001555536258675     
   20.001204527145738     
   20.064103020899982     
   20.000869051360375     
   20.000004150391799     
   1718.7673878139324     
   20.000010992090601     
   20.007938224003883     
   20.273962055121956     
   20.000593619313932     
   20.043757524939664     
   20.011601089940601     
   20.000225529202623     
   20.071950470177349     
   20.000000000000000     
   20.195202022257263     
   20.287088349051402     
   20.313744138538343     
   20.000000000000000     
   20.003141162603487     
   20.000047235124004     
   20.000483991272223     
   20.000035486606496     
   20.000015703221365     
   20.016490325087094     
   20.000024545776537     
   25.133918545834369     
   20.002081122330218     
   338.39345842164755     
   332.19422075065091     
   20.011095898141726     
   20.018460626181451     
   654.38760542942316     
   654.85182678680042     
   20.000308431903310     
   20.003636553379337     
   20.000000000000000     
   1693.2196259975244     
   20.000000000000000     
   20.000000000000000     
   20.000002697458815     
   20.000001087586952     
   20.000005679793770     
   20.000000000000000     
   24.867903908111746     
   20.000012873010551     
   20.000000000000000     
   20.049889896244210     
   20.077099899737028     
   20.000101057292802     
   20.081485398837142     
   20.000426894854854     
   20.000755894932137     
   20.000000000000000     
   1658.7760506760665     
   20.000000000000000     
   20.000684252383515     
   20.000064478614959     
   20.000123252822782     
   20.000000000000220     
   20.000000000001560     
   20.000000000000000     
   312.80765146932958     
   20.000007897833747     
   20.000000821079361     
   162.08822783697818     
   20.000000233864121     
   84.921163379948126     
   20.002355834473761     
   20.003950418516389     
   309.59687875817758     
   20.000001926661085     
   823.12419944338308     
   20.000010802939332     
   20.000020852017546     
   30.442210921730492     
   20.000000000022300     
   767.71781882089272     
   20.000000031466961     
   23.636138992814708     
   20.000000000003681     
   20.000000056060838     
   20.000000000000345     
   161.05763347261194     
   20.000000000000124     
   158.52550853407269     
   158.80202747036634     
   20.000018451359821     
   20.000001584603940     
   20.000000000000000     
   20.000138315662969     
   20.000000000000000     
   20.000000000000590     
   20.739497117088465     
   431.37108527909214     
   20.402492948516276     
   20.000000009942998     
   20.000000000000000     
   20.000000000000000     
   86.454893379415594     
   20.106140399412645     
   86.258947719709042     
   20.000000001274014     
   20.000000000000000     
   20.000000008906106     
   20.000000556278934     
   84.446835195706683     
   20.025454040775294     
   217.26627896095144     
   20.000073764612985     
   20.000129415073278     
   20.000000346838405     
   20.004443324782386     
   20.000000000000000     
   20.000000014850517     
   439.70007580039402     
   20.005455079993524     
   20.000000000002473     
   20.000000000048654     
   20.001046011859021     
   49.670984568675664     
   1297.4664857093637     
   49.448538687771304     
   980.46285670072893     
   428.39149198408251     
   113.70911343398510     
   20.000000021129786     
   20.000000169104510     
   20.000000001233975     
   449.87335650114011     
   20.000000081889638     
   20.000000000001037     
   20.000000000002434     
   20.000000001254101     
   219.89656553646697     
   20.000000134341256     
   32.117953660993138     
   31.981056483888118     
   20.000000000005983     
   20.000000001071566     
   60.852786576360344     
   20.000000543101351     
   20.000000000033090     
   20.000000000008750     
   20.000000000000000     
   24.348679166785125     
   30.344431550755054     
   20.000003174415987     
   20.054562241639616     
   20.000000000033374     
   20.000000000000000     
   186.67272455060413     
   114.92947677924951     
   20.000000005873709     
   20.000000000292069     
   20.000000000014438     
   23.605707679458540     
   25.987794494606053     
   20.000000000682274     
   982.36844181444621     
   20.002706848154368     
   61.210894923566968     
   20.000000000077971     
   108.79313548681003     
   102.99794878394148     
   21.982765813285670     
   20.000000000110507     
   21.928348981403513     
   20.000000001895440     
   20.000000379875459     
   20.000000769186318     
   29.932747249243349     
   20.000000000000000     
   199.12366567923908     
   20.000086517417493     
   20.459243150407076     
   20.448562852977503     
   20.709532801071301     
   20.000000000000000     
   528.35798937529501     
   20.000000003284391     
   20.000000000000000     
   20.000000000179298     
   20.394029692175298     
   20.000000000405940     
   60.571167177385703     
   20.000000091639624     
   20.000000187511993     
   20.000000006245983     
   57.735685332105255     
   20.165533663059719     
   20.000000000250605     
   20.000000000000000     
   20.000000000566438     
   20.000000000000000     
   20.194701371048996     
   20.000000000000000     
   20.000000008790504     
   20.000000000129294     
   20.000000028178889     
   20.000000114174910     
   20.000148776225494     
   20.000000000899895     
   20.103832550693784     
   20.000000000000000     
   20.000000409064963     
   29.006039387208926     
   20.000000044053603     
   26.075904254393429     
   20.000000039759694     
   20.000000000056662     
   20.000000000000000     
   20.000000000085802     
   20.000000003186809     
   20.000000000000000     
   20.024844301396055     
   20.000000000000945     
   20.048773430779182     
   20.000000000037559     
   20.000000252077182     
   20.000000000000000     
   20.005319235084439     
   20.000000349618340     
   21.555306317955917     
   22.003016038503848     
   253.73976526883800     
   20.009624042603885     
   28.805532281399653     
   37.025724225853416     
   1407.1795279330076     
   35.774407896642344     
   20.001020844741781     
   20.000000000024524     
   20.000000000004420     
   20.000002042859609     
   20.000000002844391     
   20.010994202874002     
   1484.5445165165725     
   20.000000000002846     
   20.000000000016200     
   20.000000000192934     
   20.000002780995807     
   20.000000004030031     
   20.000000000000000     
   674.40012382461202     
   524.44921281335371     
   20.000014910245628     
   20.000000942770399     
   20.000000039873761     
   20.002228220859607     
   20.000000000000000     
   20.000019953856253     
   1430.1735518110249     
   20.726067448650216     
   20.000375416328527     
   20.000000001833087     
   20.000000005120260     
   20.000000002327727     
   20.000000000000000     
   20.000098187103287     
   20.000000000000000     
   1335.4026345160967     
   1176.9015229693498     
   20.000000000000000     
   1210.8197698832132     
   20.000000000000000     
   20.000129157324611     
   1330.4413288270075     
   20.000000698786433     
   21.457547481747124     
   819.62207162425818     
   1351.4447781930126     
   20.000000000000437     
   20.200525856428367     
   20.000000000000000     
   20.000000000010541     
   20.000000002099561     
   20.000000004653831     
   20.000000000001837     
   20.000000000000000     
   20.000000000000544     
   20.000000000000000     
   868.31568939069450     
   20.050244177668926     
   20.000000000006825     
   590.69148817418909     
   20.000000000000000     
   20.000000000001204     
   20.011337419345573     
   20.002298663180557     
   20.000000000000000     
   20.000000000000000     
   1128.1244655666546     
   20.000000000000000     
   1257.2373084175640     
   1017.5325056522446     
   20.000000004120142     
   20.000000002723823     
   1439.2953258935297     
   21.322564311345317     
   260.15643654554020     
   20.000009621280967     
   20.000000000000000     
   20.000000000000000     
   20.000000000000000     
   719.12124766251179     
   20.000000000560146     
   20.000000000000000     
   20.000000000014158     
   20.000000000388251     
   20.000000122909704     
   1273.6124284883997     
   736.88803639728280     
   20.000000000000000     
   20.000000000000000     
   27.177123614072595     
   1139.3597436119555     
   20.000000000426759     
   20.000000000000107     
   1173.5829916092268     
   1235.1707842700177     
   20.000000168531763     
   20.000000013380486     
   947.45201281000516     
   20.000000000000000     
   20.000000000000639     
   20.000000000000210     
   20.000000000000387     
   849.15265296133737     
   20.000000018664860     
   20.000000000000423     
   20.000000000000746     
   20.940073497243638     
   20.647084453340327     
   20.000000000000284     
   20.000000000000000     
   20.000000472651145     
   20.000000000000000     
   1083.3467112836258     
   20.000000000000497     
   976.06376476091896     
   20.000000000000007     
   790.44936034776424     
   20.000000000000000     
   905.48802153979636     
   706.53712111516120     
   982.49704285320047     
   1156.5262146571838     
   962.80137683739713     
   20.000000000000000     
   20.000000000000000     
   20.000000000000075     
   812.63156020660847     
   761.21495261850453     
   681.23475238436436     
   657.18725163433521     
   1051.2678509326904     
   584.55493705072274     
   20.000000000484736     
   20.000000000000178     
   20.000000000001101     
   20.000000000000849     
   1202.3663926885713     
   805.04953995445692     
   819.54620526485508     
   887.16000929076074     
   555.47837756456113     
   635.08482142045705     
   20.000000000000554     
   20.000000000000220     
   20.000000000009056     
   460.43344743443663     
   743.18929483466684     
   459.30584108273689     
   20.000000000001581     
   20.000000000026219     
   20.000000000042952     
   545.48462682125376     
   393.70357394659300     
   672.89249157515962     
   20.000000000007915     
   511.86180211459163     
   563.71688421501585     
   20.000000000001393     
   20.000000000014627     
   562.36515139972869     
   20.000000000098222     
   20.000000000018353     
   450.07618940762347     
   20.000000000060485     
   20.000000000009472     
   20.000000000005979     
   20.000000000112390     
   480.93799254624537     
   367.42023548521945     
   394.46062617999695     
   20.000000000002011     
   298.22198506004344     
   322.33331255391624     
   20.000000000273985     
   20.000000000413202     
   20.000000000003386     
   20.000000000484533     
   618.27945735407548     
   20.000000002004597     
   20.000000002898460     
   20.000000004419064     
   20.000000000708543     
   236.91070628395997     
   20.000000001371863     
   20.000000000916625     
   309.59587286560691     
   20.000000004462773     
   20.000000002028024     
   20.000000000004750     
   20.000000012684843     
   20.000000010981452     
   20.000000007058134     
   20.000000020311443     
   20.000000003018883     
   20.000000089559592     
   20.000000126143387     
   20.000000775060037     
   20.000000380095560     
   20.000000268127810     
   20.000000543591941     
   20.000001522069834     
   20.000011289676557     
   20.000002163317856     
   20.000001533620836     
   20.000005954929232     
   20.000003039896860     
   20.000075570874213     
   20.000015765258471     
   20.000011372340829     
   20.000041275046343     
   20.000021780549272     
   20.000040230083567     
   20.000004242376534     
   20.000075078962748     
   20.000051433961222     
   20.000027808633231     
   20.000021324540363     
   20.000453429376162     
   20.000103670910107     
   20.000076099744177     
   20.000258073896767     
   20.000140800831950     
   20.000029879815230     
   293.49092176876627     
   20.002467142464610     
   20.000615318165149     
   20.000458312860818     
   20.001443533791566     
   20.000814233926892     
   20.000189877999421     
   20.002381842127743     
   20.001630698026776     
   20.000750266609394     
   20.001321581153430     
   20.012092409272146     
   20.003286031002002     
   20.002491950874781     
   20.007323313887444     
   20.004294289519734     
   20.001088261594578     
   20.000952556076296     
   20.053467057604848     
   20.015820863263247     
   20.012209291494084     
   20.033474558295701     
   20.020328177011510     
   20.005611523172664     
   20.047284154390663     
   20.034318751733004     
   20.017452866191075     
   20.028731671596905     
   20.213271660979480     
   20.068699606289684     
   20.053952145103022     
   20.138250772720550     
   20.086540625033919     
   20.026099607631355     
   164.10594437728753     
   186.75919275042224     
   176.36788591048230     
   20.021395797339299     
   20.332060581700659     
   76.659290001176402     
   203.54569432871037     
   79.725248917035699     
   70.560170724464086     
   87.235120643839508     
   20.768239632685212     
   202.04278884977310     
   154.36764712817507     
   215.74110588860037     
   20.269308615296236     
   20.215135530019939     
   37.719081543750029     
   150.80502576102276     
   65.252642463872959     
   36.367007073165418     
   81.295616720322897     
   20.109536026130755     
   57.954217893540694     
   171.36248324999946     
   20.416645101506273     
   20.515790954790258     
   233.23275842951671     
   122.57599558579625     
   106.93742748990448     
   68.402993921350458     
   24.013571360613458     
   59.622556067053949     
   21.702442272385937     
   21.545827135258357     
   41.418037646708100     
   24.547668286488740     
   250.86155529240338     
   20.951517038613034     
   20.774034321668015     
   164.34568747153591     
   21.828711718797290     
   158.33315056275589     
   40.879774400023088     
   94.085956978920095     
   24.294131272634182     
   103.41271766693494     
   107.04674873343039     
   98.112547284838229     
   164.37603398839659     
   21.147085550820886     
   86.845506482218823     
   47.046161802281397     
   48.381659228755836     
   212.95691567045810     
   51.957891496814653     
   242.56029499616508     
   33.325415286498057     
   35.593694397645947     
   39.937660381211529     
   132.75934087046033     
   252.02201175754323     
   25.305604094270727     
   112.74080355876472     
   221.39916265588363     
   20.000000031425227     
   36.597317241310250     
   38.156669702334852     
   263.01462984171326     
   20.000000203067714     
   20.000000048395037     
   30.999065179579517     
   21.419027062773765     
   42.714183050566483     
   74.336598442933266     
   399.10810639044291     
   270.85419325602294     
   183.00459708483089     
   211.12135413686397     
   100.16725935682602     
   57.193955490790628     
   35.889389459023207     
   26.216220783130744     
   22.211958725812561     
   20.709970658515470     
   20.208114420663790     
   20.054927568273971     
   20.013103918783976     
   20.002807532979126     
   20.000544683174976     
   20.000093397528730     
   20.000014981262243     
   20.000002106768850     
   20.000000270770840     
   20.000000133541374     
   20.000000065286333     
   20.000000100046591     
   20.000000014964179     
   20.000000023177414     
   20.000000001511751     
   20.000000000137700     
   20.000000000011269     
   20.000000000000867     
   20.000000020616788     
   20.000000000000117     
   20.000000000003947     
   20.000000000052470     
   20.000000000622119     
   20.000000006599649     
   20.000000030120436     
   20.000000062939698     
   20.000000043623096     
   20.000000130766907     
   20.000000091271112     
   20.000001098575932     
   20.000008280089467     
   20.000056324526234     
   20.000345781160050     
   20.001912454199271     
   20.009526813910455     
   20.042796480001364     
   20.173443743779988     
   20.634651262557423     
   22.100503727324920     
   26.301724066718876     
   37.214693563590039     
   43.568844357275154     
   39.993176548891157     
   52.031655777102486     
   62.873539263698234     
   117.79782336767164     
   225.27998526454698     
   419.25058525817025     
   44.856594640961134     
   128.06470406319411     
   139.11354898977891     
   84.031385002053781     
   20.000000009657590     
   53.555469658123947     
   196.11884673994638     
   30.394444278612760     
   60.893390927334337     
   24.750028880029063     
   20.000000014078921     
   26.811196426302779     
   50.562836433129647     
   172.61706638506470     
   31.982211033724532     
   262.05287959235727     
   23.873671407702020     
   34.587934319456345     
   91.250370334963634     
   62.658339704062378     
   28.798698916123005     
   56.351509320118261     
   25.808821939955653     
   26.163273924060359     
   24.357088089005753     
   29.801512313219025     
   27.512052089280264     
   71.160224645478976     
   202.03046049611086     
   108.15414151718038     
   56.654555548741691     
   25.556558279307467     
   21.953884166834623     
   29.502200421336706     
   58.458853072472053     
   35.192248121703557     
   27.856635542101284     
   33.244687856522162     
   22.683280283899389     
   47.111336037295487     
   23.308318638123989     
   23.409648847691177     
   22.053951255223595     
   23.005091777970083     
   22.579129968602089     
   88.376641722175762     
   23.722856064630502     
   92.362241327821536     
   21.244034141976300     
   22.301359801560075     
   49.810440064773360     
   21.756828040377204     
   20.390867309891036     
   21.357619490969739     
   48.922209983809232     
   43.927794654898108     
   52.201815774268489     
   21.180408444415562     
   20.590568397515948     
   115.14386732225579     
   20.453516696789240     
   142.20445711077696     
   20.936411358168662     
   20.804104912928832     
   20.104322419813183     
   20.504430036319871     
   20.622457801217770     
   132.54725893949947     
   20.433269255683090     
   20.529157873397693     
   20.363019886374826     
   20.412752995365533     
   20.123857640471652     
   20.345257679882312     
   20.160930821782468     
   20.269932164751964     
   20.224875491005260     
   20.174747605057203     
   20.024883026522676     
   20.095441553896414     
   20.143679193281866     
   20.110415817889180     
   20.090806473556921     
   20.030638359660873     
   20.039877439950640     
   20.069767969606705     
   20.057151221151937     
   20.043546837968741     
   20.005446172194294     
   20.022633517258782     
   20.035228115147770     
   20.026533493234954     
   20.021484461249724     
   20.006685848151566     
   20.009008013581180     
   20.016232964579185     
   20.013063262505611     
   20.009808655858610     
   20.001063454044797     
   20.004845258220076     
   20.007793482219245     
   20.005788168185450     
   20.004602585927955     
   20.001363821347141     
   20.001820766885054     
   20.003414628564983     