# vtk DataFile Version 2.0
 temperature
 ASCII
 DATASET UNSTRUCTURED_GRID
 POINTS         773  double
   0.0000000000000000        0.0000000000000000        0.0000000000000000     
   3.5000000000000000        0.0000000000000000        0.0000000000000000     
   3.5000000000000000        40.000000000000000        0.0000000000000000     
   0.0000000000000000        40.000000000000000        0.0000000000000000     
  0.43750000000000000        0.0000000000000000        0.0000000000000000     
  0.87500000000000000        0.0000000000000000        0.0000000000000000     
   1.3125000000000000        0.0000000000000000        0.0000000000000000     
   1.7500000000000000        0.0000000000000000        0.0000000000000000     
   2.1875000000000000        0.0000000000000000        0.0000000000000000     
   2.6250000000000000        0.0000000000000000        0.0000000000000000     
   3.0625000000000000        0.0000000000000000        0.0000000000000000     
   3.5000000000000000       0.50000000000000000        0.0000000000000000     
   3.5000000000000000        1.0000000000000000        0.0000000000000000     
   3.5000000000000000        1.5000000000000000        0.0000000000000000     
   3.5000000000000000        2.0000000000000000        0.0000000000000000     
   3.5000000000000000        2.5000000000000000        0.0000000000000000     
   3.5000000000000000        3.0000000000000000        0.0000000000000000     
   3.5000000000000000        3.5000000000000000        0.0000000000000000     
   3.5000000000000000        4.0000000000000000        0.0000000000000000     
   3.5000000000000000        4.5000000000000000        0.0000000000000000     
   3.5000000000000000        5.0000000000000000        0.0000000000000000     
   3.5000000000000000        5.5000000000000000        0.0000000000000000     
   3.5000000000000000        6.0000000000000000        0.0000000000000000     
   3.5000000000000000        6.5000000000000000        0.0000000000000000     
   3.5000000000000000        7.0000000000000000        0.0000000000000000     
   3.5000000000000000        7.5000000000000000        0.0000000000000000     
   3.5000000000000000        8.0000000000000000        0.0000000000000000     
   3.5000000000000000        8.5000000000000000        0.0000000000000000     
   3.5000000000000000        9.0000000000000000        0.0000000000000000     
   3.5000000000000000        9.5000000000000000        0.0000000000000000     
   3.5000000000000000        10.000000000000000        0.0000000000000000     
   3.5000000000000000        10.500000000000000        0.0000000000000000     
   3.5000000000000000        11.000000000000000        0.0000000000000000     
   3.5000000000000000        11.500000000000000        0.0000000000000000     
   3.5000000000000000        12.000000000000000        0.0000000000000000     
   3.5000000000000000        12.500000000000000        0.0000000000000000     
   3.5000000000000000        13.000000000000000        0.0000000000000000     
   3.5000000000000000        13.500000000000000        0.0000000000000000     
   3.5000000000000000        14.000000000000000        0.0000000000000000     
   3.5000000000000000        14.500000000000000        0.0000000000000000     
   3.5000000000000000        15.000000000000000        0.0000000000000000     
   3.5000000000000000        15.500000000000000        0.0000000000000000     
   3.5000000000000000        16.000000000000000        0.0000000000000000     
   3.5000000000000000        16.500000000000000        0.0000000000000000     
   3.5000000000000000        17.000000000000000        0.0000000000000000     
   3.5000000000000000        17.500000000000000        0.0000000000000000     
   3.5000000000000000        18.000000000000000        0.0000000000000000     
   3.5000000000000000        18.500000000000000        0.0000000000000000     
   3.5000000000000000        19.000000000000000        0.0000000000000000     
   3.5000000000000000        19.500000000000000        0.0000000000000000     
   3.5000000000000000        20.000000000000000        0.0000000000000000     
   3.5000000000000000        20.500000000000000        0.0000000000000000     
   3.5000000000000000        21.000000000000000        0.0000000000000000     
   3.5000000000000000        21.500000000000000        0.0000000000000000     
   3.5000000000000000        22.000000000000000        0.0000000000000000     
   3.5000000000000000        22.500000000000000        0.0000000000000000     
   3.5000000000000000        23.000000000000000        0.0000000000000000     
   3.5000000000000000        23.500000000000000        0.0000000000000000     
   3.5000000000000000        24.000000000000000        0.0000000000000000     
   3.5000000000000000        24.500000000000000        0.0000000000000000     
   3.5000000000000000        25.000000000000000        0.0000000000000000     
   3.5000000000000000        25.500000000000000        0.0000000000000000     
   3.5000000000000000        26.000000000000000        0.0000000000000000     
   3.5000000000000000        26.500000000000000        0.0000000000000000     
   3.5000000000000000        27.000000000000000        0.0000000000000000     
   3.5000000000000000        27.500000000000000        0.0000000000000000     
   3.5000000000000000        28.000000000000000        0.0000000000000000     
   3.5000000000000000        28.500000000000000        0.0000000000000000     
   3.5000000000000000        29.000000000000000        0.0000000000000000     
   3.5000000000000000        29.500000000000000        0.0000000000000000     
   3.5000000000000000        30.000000000000000        0.0000000000000000     
   3.5000000000000000        30.500000000000000        0.0000000000000000     
   3.5000000000000000        31.000000000000000        0.0000000000000000     
   3.5000000000000000        31.500000000000000        0.0000000000000000     
   3.5000000000000000        32.000000000000000        0.0000000000000000     
   3.5000000000000000        32.500000000000000        0.0000000000000000     
   3.5000000000000000        33.000000000000000        0.0000000000000000     
   3.5000000000000000        33.500000000000000        0.0000000000000000     
   3.5000000000000000        34.000000000000000        0.0000000000000000     
   3.5000000000000000        34.500000000000000        0.0000000000000000     
   3.5000000000000000        35.000000000000000        0.0000000000000000     
   3.5000000000000000        35.500000000000000        0.0000000000000000     
   3.5000000000000000        36.000000000000000        0.0000000000000000     
   3.5000000000000000        36.500000000000000        0.0000000000000000     
   3.5000000000000000        37.000000000000000        0.0000000000000000     
   3.5000000000000000        37.500000000000000        0.0000000000000000     
   3.5000000000000000        38.000000000000000        0.0000000000000000     
   3.5000000000000000        38.500000000000000        0.0000000000000000     
   3.5000000000000000        39.000000000000000        0.0000000000000000     
   3.5000000000000000        39.500000000000000        0.0000000000000000     
   3.0625000000000000        40.000000000000000        0.0000000000000000     
   2.6250000000000000        40.000000000000000        0.0000000000000000     
   2.1875000000000000        40.000000000000000        0.0000000000000000     
   1.7500000000000000        40.000000000000000        0.0000000000000000     
   1.3125000000000000        40.000000000000000        0.0000000000000000     
  0.87500000000000000        40.000000000000000        0.0000000000000000     
  0.43750000000000000        40.000000000000000        0.0000000000000000     
   0.0000000000000000        39.500000000000000        0.0000000000000000     
   0.0000000000000000        39.000000000000000        0.0000000000000000     
   0.0000000000000000        38.500000000000000        0.0000000000000000     
   0.0000000000000000        38.000000000000000        0.0000000000000000     
   0.0000000000000000        37.500000000000000        0.0000000000000000     
   0.0000000000000000        37.000000000000000        0.0000000000000000     
   0.0000000000000000        36.500000000000000        0.0000000000000000     
   0.0000000000000000        36.000000000000000        0.0000000000000000     
   0.0000000000000000        35.500000000000000        0.0000000000000000     
   0.0000000000000000        35.000000000000000        0.0000000000000000     
   0.0000000000000000        34.500000000000000        0.0000000000000000     
   0.0000000000000000        34.000000000000000        0.0000000000000000     
   0.0000000000000000        33.500000000000000        0.0000000000000000     
   0.0000000000000000        33.000000000000000        0.0000000000000000     
   0.0000000000000000        32.500000000000000        0.0000000000000000     
   0.0000000000000000        32.000000000000000        0.0000000000000000     
   0.0000000000000000        31.500000000000000        0.0000000000000000     
   0.0000000000000000        31.000000000000000        0.0000000000000000     
   0.0000000000000000        30.500000000000000        0.0000000000000000     
   0.0000000000000000        30.000000000000000        0.0000000000000000     
   0.0000000000000000        29.500000000000000        0.0000000000000000     
   0.0000000000000000        29.000000000000000        0.0000000000000000     
   0.0000000000000000        28.500000000000000        0.0000000000000000     
   0.0000000000000000        28.000000000000000        0.0000000000000000     
   0.0000000000000000        27.500000000000000        0.0000000000000000     
   0.0000000000000000        27.000000000000000        0.0000000000000000     
   0.0000000000000000        26.500000000000000        0.0000000000000000     
   0.0000000000000000        26.000000000000000        0.0000000000000000     
[...]
 CELL_DATA        1368
 SCALARS T double
 LOOKUP_TABLE default
   20.349025539016662     
   22.849687415086812     
   1672.9004850750684     
   38.703464017175250     
   20.000000008790444     
   20.770892475705253     
   1276.4259150880789     
   20.691524381312828     
   20.028984652391522     
   20.561443124488175     
   20.049776530993675     
   33.094100340862717     
   20.505662401576210     
   40.393838470058590     
   34.187262284331013     
   1209.2980983079933     
   1673.9681117746136     
   20.117667323224943     
   20.102997318908976     
   21.238019969126423     
   20.082715947362740     
   20.003067764122363     
   1734.4256637602437     
   20.005629037756925     
   20.292578769377158     
   22.886640001264869     
   20.071205015163773     
   20.920729824747841     
   20.398828850753645     
   20.034531776934418     
   21.253868418539053     
   20.000000017936379     
   22.440551858896750     
   23.105637439720308     
   23.112653897775878     
   20.000000014550480     
   20.195381162315101     
   20.014290173849798     
   20.057918981265868     
   20.012302534044757     
   20.008021606363290     
   20.506920724280160     
   20.009630101072258     
   38.997956510080598     
   20.143074029690858     
   422.13175351241864     
   414.60804722528877     
   20.415588641826037     
   20.566771693590344     
   690.81276347055461     
   694.85838612611417     
   20.040570178609713     
   20.201027059446563     
   20.000000013552491     
   1706.4305251600347     
   20.000000011444850     
   20.000000040392340     
   20.002629400286825     
   20.001373998209740     
   20.003787043318439     
   20.000000055291913     
   37.844754510975939     
   20.006556078915697     
   20.000000127838195     
   21.046163812966114     
   21.370602904247960     
   20.024483756814796     
   21.341978165487070     
   20.057443629308448     
   20.081085854722193     
   20.000000031750130     
   1674.3452025393617     
   20.000000071048262     
   20.073167429458628     
   20.017542986805505     
   20.025978406427644     
   20.000000208138154     
   20.000000636829459     
   20.000000024420800     
   397.55968852216972     
   20.004488048564809     
   20.001194557157373     
   236.34821832516121     
   20.000597867044945     
   142.05016717147825     
   20.161654513187216     
   20.221464695751330     
   393.75780337575264     
   20.002108582937584     
   855.55764546899513     
   20.006303108935047     
   20.009341182076362     
   54.810632896158815     
   20.000002987327687     
   799.50190564890124     
   20.000195922990262     
   37.433304955289074     
   20.000001012715234     
   20.000255075757075     
   20.000000283481292     
   234.76296561600620     
   20.000000164464961     
   207.06593404178830     
   209.72605348950526     
   20.008323576948811     
   20.001765949286938     
   20.000000023763725     
   20.025657897802461     
   20.000000018862700     
   20.000000354090488     
   25.325077913386796     
   509.80321994855296     
   24.272474196999372     
   20.000097099613534     
   20.000000097333601     
   20.000000008873787     
   127.19647701375987     
   21.864420032624651     
   128.51701811667058     
   20.000032616765143     
   20.000000165352819     
   20.000087083652677     
   20.001088834626827     
   141.14037504482991     
   20.774338971176803     
   295.42598141180321     
   20.019963084144596     
   20.027997368136361     
   20.000773503281930     
   20.224248489540194     
   20.000000031899173     
   20.000125360219425     
   520.03039380967039     
   20.302678106366695     
   20.000000809541820     
   20.000004681877943     
   20.111312277220307     
   79.897139160577396     
   1317.6112010083505     
   80.658768378388245     
   1004.5990520350268     
   475.03862572384548     
   177.67057282236743     
   20.000151814605299     
   20.000503485928313     
   20.000026350313011     
   497.70702661227466     
   20.000326304517618     
   20.000000489790381     
   20.000000815736747     
   20.000031949861022     
   299.22757843371744     
   20.000465947384317     
   52.178151427977888     
   52.483562903165577     
   20.000001363270727     
   20.000022854201969     
   107.14159991066074     
   20.000904599374277     
   20.000003741674494     
   20.000001694183251     
   20.000000094774197     
   35.245255246209744     
   54.493448309966318     
   20.002668779780034     
   21.032388637228550     
   20.000003783934332     
   20.000000008106777     
   236.59674181796635     
   179.84696425217072     
   20.000066428342762     
   20.000012122699388     
   20.000002304693560     
   37.284897460490718     
   43.832708520551009     
   20.000016936013804     
   1009.0034249210258     
   20.164138034058219     
   108.07821098492023     
   20.000006231486402     
   154.65909941066536     
   146.69278347485951     
   31.646841747918284     
   20.000007622498288     
   30.064615681215113     
   20.000034792890201     
   20.000851958590363     
   20.001298739054114     
   50.627534862797830     
   20.000000022892447     
   251.51019515491467     
   20.020465001313539     
   23.810472074988191     
   23.786821097747413     
   25.949572446048112     
   20.000000011299523     
   573.57287020719434     
   20.000043068933500     
   20.000000020473912     
   20.000010217145217     
   24.182531077332431     
   20.000016603113643     
   95.938033646303495     
   20.000364830550584     
   20.000559041586914     
   20.000082928570045     
   91.208480340793514     
   22.116802587774369     
   20.000012396330092     
   20.000000025733407     
   20.000020133245378     
   20.000000050886893     
   22.645288756004724     
   20.000000009878878     
   20.000100912354640     
   20.000007458218224     
   20.000203245463062     
   20.000389019040799     
   20.028711674945509     
   20.000026641079785     
   21.824158583048650     
   20.000000029315952     
   20.000787036689047     
   48.662347131088730     
   20.000235519636647     
   44.205220394944782     
   20.000247642659303     
   20.000004567321007     
   20.000000016062426     
   20.000005745279129     
   20.000050209583662     
   20.000000039763023     
   20.756975039790550     
   20.000000476646804     
   21.122642591963672     
   20.000003519163531     
   20.000749297649765     
   20.000000017795067     
   20.295728537595259     
   20.000904135296089     
   28.735559847340195     
   31.797957874652642     
   315.97122223916313     
   20.365416692603070     
   46.692453182780262     
   61.321604331843830     
   1430.7339686050316     
   58.651753890716620     
   20.108691945335096     
   20.000002777156283     
   20.000001005425670     
   20.002610510814545     
   20.000052014003494     
   20.450494585796033     
   1511.8241270509536     
   20.000000762665952     
   20.000002134940040     
   20.000009304898622     
   20.003116471168276     
   20.000063433614326     
   20.000000052136237     
   731.78785354466334     
   565.63983200498512     
   20.008566921318362     
   20.001377358140335     
   20.000212478924805     
   20.170676088924875     
   20.000000048964989     
   20.010129860481427     
   1455.6823713670299     
   26.104110426369687     
   20.051007167326574     
   20.000039697298345     
   20.000057900842858     
   20.000036264377989     
   20.000000051877677     
   20.026523653737875     
   20.000000047205504     
   1375.7309314373254     
   1187.2220532565570     
   20.000000007154050     
   1246.6803758939304     
   20.000000059411875     
   20.031061508407973     
   1362.1082090559382     
   20.001175683590546     
   27.714572764168643     
   861.06728979513139     
   1384.6986217037479     
   20.000000239769623     
   22.727052932110517     
   20.000000014358431     
   20.000001683429598     
   20.000038492078989     
   20.000061800926247     
   20.000000599158252     
   20.000000023894639     
   20.000000264696485     
   20.000000019711827     
   913.52496321678291     
   21.158256192944954     
   20.000001277943909     
   648.62176982997551     
   20.000000017292351     
   20.000000450086436     
   20.465268835217664     
   20.176356542336233     
   20.000000008829698     
   20.000000013913883     
   1170.0161393410897     
   20.000000036604405     
   1285.1451304043096     
   1062.9577068531801     
   20.000055111677273     
   20.000042123780247     
   1473.5324813447037     
   27.262892557981310     
   320.74506676044211     
   20.005642191968043     
   20.000000021863780     
   20.000000012196125     
   20.000000055611547     
   771.09188908956605     
   20.000016462632193     
   20.000000034732128     
   20.000002260289584     
   20.000013518843080     
   20.000488330867014     
   1312.3787100862155     
   759.91534329680928     
   20.000000021176049     
   20.000000042821679     
   43.354544611617868     
   1191.4388774208294     
   20.000014914356022     
   20.000000090079553     
   1207.2710312008116     
   1281.7968504275657     
   20.000585153743721     
   20.000130478481832     
   998.61918016706477     
   20.000000036217337     
   20.000000261234185     
   20.000000122330974     
   20.000000152783411     
   902.99122583380120     
   20.000157902096625     
   20.000000208389469     
   20.000000298382876     
   26.604239354267335     
   24.772292423284547     
   20.000000108812486     
   20.000000029997071     
   20.000909690301079     
   20.000000074108886     
   1132.6349049664132     
   20.000000185275233     
   1029.3498844639228     
   20.000000082091109     
   849.52346647242746     
   20.000000027412884     
   964.51626742546341     
   767.37469945408372     
   1025.1580290965410     
   1200.1449757487842     
   1025.1492595305451     
   20.000000068574188     
   20.000000030185479     
   20.000000063627457     
   863.16844109612634     
   827.70289645755508     
   749.59851861696961     
   722.58218035053471     
   1108.8201197286639     
   650.69749903322054     
   20.000014261649461     
   20.000000089381569     
   20.000000408173225     
   20.000000356670942     
   1228.1808964380930     
   876.00024086775556     
   881.36994618589404     
   954.04231737628038     
   617.73879571935402     
   707.18047521923870     
   20.000000376407534     
   20.000000283547330     
   20.000001414408672     
   544.99661666147040     
   817.56728343801035     
   542.98706248716633     
   20.000000504277196     
   20.000002436060939     
   20.000003378363179     
   615.36371408536684     
   458.16374556805692     
   750.24437504365358     
   20.000001237153860     
   595.50568314927750     
   636.69399927762936     
   20.000000440557944     
   20.000001928057078     
   644.12457711992670     
   20.000005524651630     
   20.000002038096913     
   522.97937953755445     
   20.000004006256503     
   20.000001799755857     
   20.000001371503437     
   20.000006319905872     
   550.67289217580003     
   442.05861242886158     
   466.14798187850647     
   20.000000532389485     
   372.71618128113778     
   394.82222520967548     
   20.000013224660204     
   20.000016857575861     
   20.000000744730183     
   20.000017129926057     
   698.24635352713744     
   20.000042890951129     
   20.000053154628247     
   20.000068573735735     
   20.000021176121734     
   288.53630879749767     
   20.000034449755155     
   20.000027056437325     
   387.02168357577909     
   20.000069340142090     
   20.000043391302327     
   20.000000886427951     
   20.000104975238088     
   20.000091088179186     
   20.000067837279172     
   20.000169830683244     
   20.000055036673015     
   20.000410425713039     
   20.000501021332099     
   20.001492620278292     
   20.000975793046209     
   20.000793543762740     
   20.001209549663916     
   20.002221665960995     
   20.007355216076981     
   20.002757600151543     
   20.002242194955073     
   20.005041875885169     
   20.003373752701656     
   20.022975778372313     
   20.009037330346345     
   20.007421550553538     
   20.016061992384405     
   20.010951170512946     
   20.012232566199696     
   20.004122163812806     
   20.017748246470575     
   20.013700656727075     
   20.009508758231437     
   20.008365548435496     
   20.067476216271935     
   20.027946317820522     
   20.023177208215984     
   20.048289119481080     
   20.033542587257138     
   20.013250419453978     
   374.12083730201317     
   20.187748668702749     
   20.081619982814718     
   20.068223836726666     
   20.136397847837753     
   20.096512438744718     
   20.040195452146047     
   20.144025394412875     
   20.110539258674432     
   20.071299629692000     
   20.100473721415522     
   20.493276280523126     
   20.224729363304032     
   20.189737030312280     
   20.365104988394908     
   20.264009210320769     
   20.115130975998419     
   20.079965602111631     
   21.225910752795436     
   20.584628154126811     
   20.498345134623595     
   20.923615924482501     
   20.680570093832731     
   20.310939900570286     
   20.895328028163782     
   20.712446077423206     
   20.484256703018488     
   20.657696690341954     
   22.884386182548759     
   21.438756311370955     
   21.238011834696717     
   22.213632680776108     
   21.656848866093831     
   20.793958149798179     
   227.06592433537293     
   259.88186840024099     
   238.33136699635551     
   20.533036315456673     
   23.817800220502637     
   122.68845654051908     
   276.78103316661719     
   132.54701907162473     
   119.38288044862581     
   137.46670150901866     
   26.435052511884525     
   261.17732445896138     
   225.05536291008028     
   280.10779897161569     
   23.353653675667434     
   22.911983094549282     
   65.481875270792287     
   219.60078026202544     
   112.45659666501824     
   61.888814254320629     
   135.57409167080468     
   21.918746545780234     
   101.17507389956511     
   226.47684687570668     
   24.405081167902800     
   25.029997364256694     
   309.83496679699209     
   186.64203524696768     
   166.71202841427205     
   115.09389358459441     
   37.079594795794087     
   97.621428669907743     
   30.705604299340127     
   29.772012509765407     
   72.433463758059446     
   38.273245103973629     
   318.80722708898611     
   27.406977719628898     
   26.492442829436538     
   233.86365571835876     
   30.789732635151552     
   224.84527895967372     
   73.767310419849906     
   144.70460400855296     
   37.186173791998442     
   160.69354994627744     
   161.72633065031300     
   156.59376632507653     
   221.94504641965659     
   28.326849130962504     
   141.31795931238915     
   86.159626474456033     
   86.379341608196142     
   282.73059801934363     
   85.611687239701027     
   315.46770079691709     
   55.901723445030470     
   62.183351495271914     
   71.308486207850024     
   197.80393124948955     
   328.22456653108384     
   41.185430962773772     
   170.98611846270427     
   263.25773897546452     
   20.000165097464453     
   64.895195592809074     
   69.209375347924592     
   308.34582969401600     
   20.000518034954379     
   20.000220401634532     
   54.855057834886772     
   29.543546656502020     
   75.629984776454080     
   122.43828992957202     
   435.57205216829806     
   312.03287806042744     
   225.36323385652705     
   256.78135557137153     
   137.91192791230472     
   86.986183449974902     
   56.797429348028629     
   39.470546297548680     
   29.878092960427509     
   24.745929225385442     
   22.188857825548773     
   20.952709861910392     
   20.394766682541967     
   20.154122860823470     
   20.056975984550387     
   20.019582793538966     
   20.006560415979898     
   20.002019154260346     
   20.000596148040064     
   20.000391187034356     
   20.000254571613670     
   20.000339133006559     
   20.000105928318483     
   20.000142197002894     
   20.000027186076068     
   20.000006532268312     
   20.000001475744092     
   20.000000315848169     
   20.000172173631505     
   20.000000221280402     
   20.000001080152455     
   20.000004957695051     
   20.000021518844456     
   20.000087618164144     
   20.000215970572196     
   20.000334712177960     
   20.000268784416495     
   20.000517250684911     
   20.000416990511550     
   20.001839876814813     
   20.006146707877907     
   20.019374207365725     
   20.057651521223576     
   20.161856977396859     
   20.428959544777630     
   21.075041570400906     
   22.550376709403938     
   25.736117095274285     
   32.257812441724106     
   44.971659643845591     
   68.702827397937099     
   80.271836074786663     
   73.832720221510073     
   94.404835199925515     
   111.11155324710199     
   184.23198761752835     
   306.28006567537182     
   504.70791292394370     
   80.979894331604541     
   190.25440373778846     
   201.78383071888038     
   136.14564424986224     
   20.000109699348826     
   95.031005896266578     
   266.30584048584342     
   52.979554428724974     
   103.73563761465167     
   40.177107420126568     
   20.000137439949434     
   45.550650634954884     
   88.280926755412750     
   239.33273906727200     
   55.985173342131091     
   333.89187038580098     
   37.527865439459404     
   61.507295504934227     
   144.53223079222388     
   103.80946728421932     
   49.275185619723977     
   97.714501391705156     
   41.796525641321530     
   43.153253795733391     
   38.452325696664907     
   52.822181511132918     
   46.650290602293758     
   116.47494201030872     
   267.61113800392496     
   158.63515404665438     
   101.60409508589331     
   42.182202326370003     
   30.736911674966027     
   51.842757785601080     
   98.681267087722603     
   63.330837890741464     
   47.876623412133469     
   59.761980345045572     
   33.816808240214584     
   83.370343999638550     
   35.943250573280388     
   36.426215034087079     
   31.324435748517196     
   34.481463941685632     
   33.256494447209143     
   135.31633206655442     
   36.825298379306837     
   138.18368330138134     
   28.442773124891342     
   32.612231673875826     
   83.775423023341958     
   30.345665572721188     
   23.835965693608973     
   28.668038906545902     
   84.549017303982481     
   75.901172156327902     
   88.707608113757487     
   27.999671609832987     
   24.993545806815153     
   169.93766946356865     
   24.161774956244507     
   200.95088975917852     
   26.844444632770383     
   26.284053011761486     
   21.681364929265786     
   24.259139196154607     
   25.283970032732025     
   191.63829625815973     
   23.929748330008319     
   24.822337859410876     
   23.868993223704425     
   24.076579722052085     
   21.845400544172378     
   23.680943203401274     
   22.202207909329832     
   23.124527363681864     
   22.817439860494790     
   22.381006419190342     
   20.691328779367524     
   21.684266048367370     
   22.133844877487444     
   21.790097786440789     
   21.602363777065349     
   20.775537349831648     
   20.924723504184822     
   21.346916643739309     
   21.204135859589744     
   21.006372230765468     
   20.273818197996135     
   20.694144768472761     
   20.894405884058148     
   20.742094917631729     
   20.659004470445712     
   20.305823222991208     
   20.372339954415452     
   20.549045469562454     
   20.486333683349109     
   20.403448996604574     
   20.101421732570145     
   20.270959737752538     
   20.355194206562150     
   20.292587943989453     
   20.257344359806570     
   20.116187507235779     
   20.140425886559004     
   20.212223400399711     