# vtk DataFile Version 2.0
 temperature
 ASCII
 DATASET UNSTRUCTURED_GRID
 POINTS         773  double
   0.0000000000000000        0.0000000000000000        0.0000000000000000     
   3.5000000000000000        0.0000000000000000        0.0000000000000000     
   3.5000000000000000        40.000000000000000        0.0000000000000000     
   0.0000000000000000        40.000000000000000        0.0000000000000000     
  0.43750000000000000        0.0000000000000000        0.0000000000000000     
  0.87500000000000000        0.0000000000000000        0.0000000000000000     
   1.3125000000000000        0.0000000000000000        0.0000000000000000     
   1.7500000000000000        0.0000000000000000        0.0000000000000000     
   2.1875000000000000        0.0000000000000000        0.0000000000000000     
   2.6250000000000000        0.0000000000000000        0.0000000000000000     
   3.0625000000000000        0.0000000000000000        0.0000000000000000     
   3.5000000000000000       0.50000000000000000        0.0000000000000000     
   3.5000000000000000        1.0000000000000000        0.0000000000000000     
   3.5000000000000000        1.5000000000000000        0.0000000000000000     
   3.5000000000000000        2.0000000000000000        0.0000000000000000     
   3.5000000000000000        2.5000000000000000        0.0000000000000000     
   3.5000000000000000        3.0000000000000000        0.0000000000000000     
   3.5000000000000000        3.5000000000000000        0.0000000000000000     
   3.5000000000000000        4.0000000000000000        0.0000000000000000     
   3.5000000000000000        4.5000000000000000        0.0000000000000000     
   3.5000000000000000        5.0000000000000000        0.0000000000000000     
   3.5000000000000000        5.5000000000000000        0.0000000000000000     
   3.5000000000000000        6.0000000000000000        0.0000000000000000     
   3.5000000000000000        6.5000000000000000        0.0000000000000000     
   3.5000000000000000        7.0000000000000000        0.0000000000000000     
   3.5000000000000000        7.5000000000000000        0.0000000000000000     
   3.5000000000000000        8.0000000000000000        0.0000000000000000     
   3.5000000000000000        8.5000000000000000        0.0000000000000000     
   3.5000000000000000        9.0000000000000000        0.0000000000000000     
   3.5000000000000000        9.5000000000000000        0.0000000000000000     
   3.5000000000000000        10.000000000000000        0.0000000000000000     
   3.5000000000000000        10.500000000000000        0.0000000000000000     
   3.5000000000000000        11.000000000000000        0.0000000000000000     
   3.5000000000000000        11.500000000000000        0.0000000000000000     
   3.5000000000000000        12.000000000000000        0.0000000000000000     
   3.5000000000000000        12.500000000000000        0.0000000000000000     
   3.5000000000000000        13.000000000000000        0.0000000000000000     
   3.5000000000000000        13.500000000000000        0.0000000000000000     
   3.5000000000000000        14.000000000000000        0.0000000000000000     
   3.5000000000000000        14.500000000000000        0.0000000000000000     
   3.5000000000000000        15.000000000000000        0.0000000000000000     
   3.5000000000000000        15.500000000000000        0.0000000000000000     
   3.5000000000000000        16.000000000000000        0.0000000000000000     
   3.5000000000000000        16.500000000000000        0.0000000000000000     
   3.5000000000000000        17.000000000000000        0.0000000000000000     
   3.5000000000000000        17.500000000000000        0.0000000000000000     
   3.5000000000000000        18.000000000000000        0.0000000000000000     
   3.5000000000000000        18.500000000000000        0.0000000000000000     
   3.5000000000000000        19.000000000000000        0.0000000000000000     
   3.5000000000000000        19.500000000000000        0.0000000000000000     
   3.5000000000000000        20.000000000000000        0.0000000000000000     
   3.5000000000000000        20.500000000000000        0.0000000000000000     
   3.5000000000000000        21.000000000000000        0.0000000000000000     
   3.5000000000000000        21.500000000000000        0.0000000000000000     
   3.5000000000000000        22.000000000000000        0.0000000000000000     
   3.5000000000000000        22.500000000000000        0.0000000000000000     
   3.5000000000000000        23.000000000000000        0.0000000000000000     
   3.5000000000000000        23.500000000000000        0.0000000000000000     
   3.5000000000000000        24.000000000000000        0.0000000000000000     
   3.5000000000000000        24.500000000000000        0.0000000000000000     
   3.5000000000000000        25.000000000000000        0.0000000000000000     
   3.5000000000000000        25.500000000000000        0.0000000000000000     
   3.5000000000000000        26.000000000000000        0.0000000000000000     
   3.5000000000000000        26.500000000000000        0.0000000000000000     
   3.5000000000000000        27.000000000000000        0.0000000000000000     
   3.5000000000000000        27.500000000000000        0.0000000000000000     
   3.5000000000000000        28.000000000000000        0.0000000000000000     
   3.5000000000000000        28.500000000000000        0.0000000000000000     
   3.5000000000000000        29.000000000000000        0.0000000000000000     
   3.5000000000000000        29.500000000000000        0.0000000000000000     
   3.5000000000000000        30.000000000000000        0.0000000000000000     
   3.5000000000000000        30.500000000000000        0.0000000000000000     
   3.5000000000000000        31.000000000000000        0.0000000000000000     
   3.5000000000000000        31.500000000000000        0.0000000000000000     
   3.5000000000000000        32.000000000000000        0.0000000000000000     
   3.5000000000000000        32.500000000000000        0.0000000000000000     
   3.5000000000000000        33.000000000000000        0.0000000000000000     
   3.5000000000000000        33.500000000000000        0.0000000000000000     
   3.5000000000000000        34.000000000000000        0.0000000000000000     
   3.5000000000000000        34.500000000000000        0.0000000000000000     
   3.5000000000000000        35.000000000000000        0.0000000000000000     
   3.5000000000000000        35.500000000000000        0.0000000000000000     
   3.5000000000000000        36.000000000000000        0.0000000000000000     
   3.5000000000000000        36.500000000000000        0.0000000000000000     
   3.5000000000000000        37.000000000000000        0.0000000000000000     
   3.5000000000000000        37.500000000000000        0.0000000000000000     
   3.5000000000000000        38.000000000000000        0.0000000000000000     
   3.5000000000000000        38.500000000000000        0.0000000000000000     
   3.5000000000000000        39.000000000000000        0.0000000000000000     
   3.5000000000000000        39.500000000000000        0.0000000000000000     
   3.0625000000000000        40.000000000000000        0.0000000000000000     
   2.6250000000000000        40.000000000000000        0.0000000000000000     
   2.1875000000000000        40.000000000000000        0.0000000000000000     
   1.7500000000000000        40.000000000000000        0.0000000000000000     
   1.3125000000000000        40.000000000000000        0.0000000000000000     
  0.87500000000000000        40.000000000000000        0.0000000000000000     
  0.43750000000000000        40.000000000000000        0.0000000000000000     
   0.0000000000000000        39.500000000000000        0.0000000000000000     
   0.0000000000000000        39.000000000000000        0.0000000000000000     
   0.0000000000000000        38.500000000000000        0.0000000000000000     
   0.0000000000000000        38.000000000000000        0.0000000000000000     
   0.0000000000000000        37.500000000000000        0.0000000000000000     
   0.0000000000000000        37.000000000000000        0.0000000000000000     
   0.0000000000000000        36.500000000000000        0.0000000000000000     
   0.0000000000000000        36.000000000000000        0.0000000000000000     
   0.0000000000000000        35.500000000000000        0.0000000000000000     
   0.0000000000000000        35.000000000000000        0.0000000000000000     
   0.0000000000000000        34.500000000000000        0.0000000000000000     
   0.0000000000000000        34.000000000000000        0.0000000000000000     
   0.0000000000000000        33.500000000000000        0.0000000000000000     
   0.0000000000000000        33.000000000000000        0.0000000000000000     
   0.0000000000000000        32.500000000000000        0.0000000000000000     
   0.0000000000000000        32.000000000000000        0.0000000000000000     
   0.0000000000000000        31.500000000000000        0.0000000000000000     
   0.0000000000000000        31.000000000000000        0.0000000000000000     
   0.0000000000000000        30.500000000000000        0.0000000000000000     
   0.0000000000000000        30.000000000000000        0.0000000000000000     
   0.0000000000000000        29.500000000000000        0.0000000000000000     
   0.0000000000000000        29.000000000000000        0.0000000000000000     
   0.0000000000000000        28.500000000000000        0.0000000000000000     
   0.0000000000000000        28.000000000000000        0.0000000000000000     
   0.0000000000000000        27.500000000000000        0.0000000000000000     
   0.0000000000000000        27.000000000000000        0.0000000000000000     
   0.0000000000000000        26.500000000000000        0.0000000000000000     
   0.0000000000000000        26.000000000000000        0.0000000000000000     
[...]
 CELL_DATA        1368
 SCALARS T double
 LOOKUP_TABLE default
   20.000184104883797     
   20.014386767004936     
   1626.0184728422032     
   21.303287644780898     
   20.000000000000000     
   20.000951720542702     
   1235.4811512981548     
   20.000693290051565     
   20.000000595592237     
   20.000463092144177     
   20.000001989735168     
   20.492562735754607     
   20.000275816278641     
   21.402280345836584     
   20.594690854504957     
   1167.5049860446593     
   1625.9675364191730     
   20.000012214187546     
   20.000008307829866     
   20.002160905725351     
   20.000005353989856     
   20.000000002987683     
   1697.4328256113745     
   20.000000011604612     
   20.000133726663584     
   20.017838670050683     
   20.000002862197263     
   20.001346909265848     
   20.000210974280709     
   20.000000843169321     
   20.002713554130143     
   20.000000000000000     
   20.010529716803816     
   20.018160635680115     
   20.021859743803397     
   20.000000000000000     
   20.000030339393817     
   20.000000086271211     
   20.000002342800784     
   20.000000056228050     
   20.000000016602382     
   20.000337987027144     
   20.000000034211730     
   21.063872883201128     
   20.000018089279681     
   253.46940419145474     
   248.71804395760068     
   20.000183951332119     
   20.000378606711230     
   607.71771496358019     
   603.92063201692611     
   20.000001350952591     
   20.000039868958726     
   20.000000000000000     
   1675.2089013527450     
   20.000000000000000     
   20.000000000000000     
   20.000000001457561     
   20.000000000449653     
   20.000000004562118     
   20.000000000000000     
   21.019536918170001     
   20.000000013664952     
   20.000000000000000     
   20.001540077410858     
   20.002845588383490     
   20.000000232714029     
   20.003274235622385     
   20.000001824920705     
   20.000004103435934     
   20.000000000000000     
   1637.5780783189464     
   20.000000000000000     
   20.000003726547305     
   20.000000131724303     
   20.000000328622249     
   20.000000000000000     
   20.000000000000000     
   20.000000000000000     
   229.10450994580776     
   20.000000007476231     
   20.000000000293170     
   102.56096492308042     
   20.000000000046754     
   49.281139914541200     
   20.000020511780871     
   20.000042653760215     
   226.58034446067890     
   20.000000000923041     
   780.62771483441713     
   20.000000009957056     
   20.000000025283011     
   22.428373893597826     
   20.000000000000000     
   726.19500855659862     
   20.000000000002455     
   20.561930988855032     
   20.000000000000000     
   20.000000000006207     
   20.000000000000000     
   101.97297793444415     
   20.000000000000000     
   113.52312024274853     
   112.27625106978914     
   20.000000022218455     
   20.000000000746315     
   20.000000000000000     
   20.000000422213976     
   20.000000000000000     
   20.000000000000000     
   20.073013438741963     
   345.45331272299234     
   20.025906267899177     
   20.000000000000508     
   20.000000000000000     
   20.000000000000000     
   56.075476878687795     
   20.003954390537391     
   55.298682013307847     
   20.000000000000000     
   20.000000000000000     
   20.000000000000398     
   20.000000000146375     
   49.073767257769411     
   20.000525026036510     
   147.54781811849472     
   20.000000151391408     
   20.000000336176562     
   20.000000000079790     
   20.000053792731826     
   20.000000000000000     
   20.000000000000814     
   351.74626135411512     
   20.000059241902655     
   20.000000000000000     
   20.000000000000000     
   20.000005700044902     
   32.330219161944399     
   1270.2367893151591     
   31.942403698859170     
   948.23437543754403     
   372.73619495228741     
   68.256747775761738     
   20.000000000001410     
   20.000000000028887     
   20.000000000000000     
   392.59360625281812     
   20.000000000010381     
   20.000000000000000     
   20.000000000000000     
   20.000000000000000     
   149.16641003678174     
   20.000000000019590     
   23.662764351919765     
   23.533226097246111     
   20.000000000000000     
   20.000000000000000     
   35.882655220526907     
   20.000000000168878     
   20.000000000000000     
   20.000000000000000     
   20.000000000000000     
   20.957291340307687     
   22.405129937699527     
   20.000000002001698     
   20.001882867843801     
   20.000000000000000     
   20.000000000000000     
   138.07020201479938     
   68.837235837427144     
   20.000000000000231     
   20.000000000000000     
   20.000000000000000     
   20.557349038063418     
   21.140099336665624     
   20.000000000000000     
   946.90768944891181     
   20.000026863686312     
   35.984325276554365     
   20.000000000000000     
   71.943339745816374     
   68.166970870556838     
   20.244556574332080     
   20.000000000000000     
   20.271726416829402     
   20.000000000000000     
   20.000000000086899     
   20.000000000235833     
   22.528570502440964     
   20.000000000000000     
   147.76826463660302     
   20.000000204600529     
   20.038844946911198     
   20.037210018712976     
   20.059157105574293     
   20.000000000000000     
   472.70086805664243     
   20.000000000000053     
   20.000000000000000     
   20.000000000000000     
   20.025370977974131     
   20.000000000000000     
   38.428680141364545     
   20.000000000011589     
   20.000000000032003     
   20.000000000000114     
   36.973930480943359     
   20.008710490063759     
   20.000000000000000     
   20.000000000000000     
   20.000000000000000     
   20.000000000000000     
   20.009590495160193     
   20.000000000000000     
   20.000000000000366     
   20.000000000000000     
   20.000000000001865     
   20.000000000016996     
   20.000000436408072     
   20.000000000000000     
   20.003868732062521     
   20.000000000000000     
   20.000000000109587     
   22.211557425890980     
   20.000000000004079     
   21.155728981827050     
   20.000000000003109     
   20.000000000000000     
   20.000000000000000     
   20.000000000000000     
   20.000000000000114     
   20.000000000000000     
   20.000511735457305     
   20.000000000000000     
   20.001359265408890     
   20.000000000000000     
   20.000000000042995     
   20.000000000000000     
   20.000057663311321     
   20.000000000068880     
   20.202000943621897     
   20.246303707806110     
   191.04564392723967     
   20.000157100160216     
   22.286458276436303     
   25.705512497084580     
   1375.3435020735706     
   25.226874976715376     
   20.000005562658330     
   20.000000000000000     
   20.000000000000000     
   20.000000000831879     
   20.000000000000000     
   20.000165230207035     
   1447.6920613269006     
   20.000000000000000     
   20.000000000000000     
   20.000000000000000     
   20.000000001298417     
   20.000000000000000     
   20.000000000000000     
   603.45050723219322     
   473.28036197405487     
   20.000000013903602     
   20.000000000335739     
   20.000000000003734     
   20.000017225707694     
   20.000000000000000     
   20.000000021178721     
   1395.7219381139889     
   20.060355832761633     
   20.000001588744130     
   20.000000000000000     
   20.000000000000156     
   20.000000000000000     
   20.000000000000000     
   20.000000201141059     
   20.000000000000000     
   1281.5779368234510     
   1162.8663550014280     
   20.000000000000000     
   1163.0643313597545     
   20.000000000000000     
   20.000000298990084     
   1287.9554265617494     
   20.000000000215056     
   20.202375006097551     
   766.04357136873455     
   1306.8460317447320     
   20.000000000000000     
   20.009864433203763     
   20.000000000000000     
   20.000000000000000     
   20.000000000000014     
   20.000000000000231     
   20.000000000000000     
   20.000000000000000     
   20.000000000000000     
   20.000000000000000     
   809.93307786843013     
   20.001397391639156     
   20.000000000000000     
   520.35302412770716     
   20.000000000000000     
   20.000000000000000     
   20.000170019097173     
   20.000017730449571     
   20.000000000000000     
   20.000000000000000     
   1072.8385849694519     
   20.000000000000000     
   1219.7779707270224     
   958.19773695569529     
   20.000000000000114     
   20.000000000000014     
   1393.2583933195826     
   20.176223075181458     
   198.26348812687229     
   20.000000008817274     
   20.000000000000000     
   20.000000000000000     
   20.000000000000000     
   653.79862246550408     
   20.000000000000000     
   20.000000000000000     
   20.000000000000000     
   20.000000000000000     
   20.000000000015557     
   1221.9586481653048     
   706.42153438994831     
   20.000000000000000     
   20.000000000000000     
   21.718841552264728     
   1071.1867919814331     
   20.000000000000000     
   20.000000000000000     
   1128.7075993423782     
   1173.5080470615294     
   20.000000000024528     
   20.000000000000707     
   881.40269173417971     
   20.000000000000000     
   20.000000000000000     
   20.000000000000000     
   20.000000000000000     
   780.55814708043351     
   20.000000000001066     
   20.000000000000000     
   20.000000000000000     
   20.095335509924535     
   20.062214991805920     
   20.000000000000000     
   20.000000000000000     
   20.000000000126686     
   20.000000000000000     
   1018.9149188167017     
   20.000000000000000     
   907.27409680103221     
   20.000000000000000     
   716.27206255030410     
   20.000000000000000     
   830.30516942022223     
   631.34166529948004     
   926.73871529985263     
   1098.9586076691783     
   883.19956785577460     
   20.000000000000000     
   20.000000000000000     
   20.000000000000000     
   748.20729799586411     
   678.99675461656329     
   598.18277600582508     
   577.73516792847897     
   976.81033891425091     
   505.66650484038558     
   20.000000000000000     
   20.000000000000000     
   20.000000000000000     
   20.000000000000000     
   1167.7104579287025     
   717.23996408429934     
   741.90828435533717     
   802.96347778914503     
   481.20385055438686     
   548.97322600187988     
   20.000000000000000     
   20.000000000000000     
   20.000000000000000     
   367.80400251642669     
   652.57053998303002     
   367.50462544503790     
   20.000000000000000     
   20.000000000000000     
   20.000000000000000     
   463.70157837803151     
   321.79793982154291     
   580.48085165911209     
   20.000000000000000     
   417.91374740277780     
   478.37619321390241     
   20.000000000000000     
   20.000000000000000     
   468.43673660730462     
   20.000000000000000     
   20.000000000000000     
   368.34588124152964     
   20.000000000000000     
   20.000000000000000     
   20.000000000000000     
   20.000000000000000     
   401.11710381121333     
   287.88527511465264     
   316.10706316500028     
   20.000000000000000     
   223.16411961287483     
   247.16617564652555     
   20.000000000000000     
   20.000000000000000     
   20.000000000000000     
   20.000000000000000     
   524.49171857826491     
   20.000000000000000     
   20.000000000000000     
   20.000000000000117     
   20.000000000000000     
   183.39961700589302     
   20.000000000000000     
   20.000000000000000     
   231.51579591643500     
   20.000000000000217     
   20.000000000000000     
   20.000000000000000     
   20.000000000000750     
   20.000000000000639     
   20.000000000000327     
   20.000000000001236     
   20.000000000000110     
   20.000000000009791     
   20.000000000015955     
   20.000000000206331     
   20.000000000075264     
   20.000000000045876     
   20.000000000124686     
   20.000000000539547     
   20.000000009228625     
   20.000000000881588     
   20.000000000542716     
   20.000000003707854     
   20.000000001430134     
   20.000000136678523     
   20.000000014713901     
   20.000000009280601     
   20.000000057678974     
   20.000000023305791     
   20.000000073145955     
   20.000000002290168     
   20.000000177854233     
   20.000000107613619     
   20.000000044746955     
   20.000000029719136     
   20.000001734414067     
   20.000000212561037     
   20.000000137396288     
   20.000000775910095     
   20.000000328640503     
   20.000000036439673     
   214.35202681434819     
   20.000019159356377     
   20.000002655227608     
   20.000001752933716     
   20.000008914146004     
   20.000003957664440     
   20.000000501606777     
   20.000023718411509     
   20.000014411241157     
   20.000004630670695     
   20.000010329563228     
   20.000182227081506     
   20.000028565988114     
   20.000019345224164     
   20.000089119959913     
   20.000041807378278     
   20.000005963529190     
   20.000006707816897     
   20.001493817618744     
   20.000264876210146     
   20.000183916237997     
   20.000766543013032     
   20.000378287658819     
   20.000061020846456     
   20.001631267183534     
   20.001073187614065     
   20.000399483807289     
   20.000808156181893     
   20.010542787380338     
   20.002115426884835     
   20.001506397095643     
   20.005690212035599     
   20.002936100556305     
   20.000538226356376     
   110.00651268469049     
   123.93457202933041     
   121.20036215569162     
   20.000549907702933     
   20.019579292392397     
   46.727107028836130     
   138.42716968166144     
   46.875977009026649     
   41.646584742650525     
   53.127623200866694     
   20.064055660809537     
   145.82454382268367     
   97.882833131165185     
   154.75851010133775     
   20.014558031668201     
   20.010627151709265     
   25.562791438589581     
   95.840328380573240     
   38.509606916130522     
   25.155985478711219     
   47.560056331836130     
   20.004090904722613     
   34.717203510720438     
   120.87260420692269     
   20.026916794127605     
   20.036394723791595     
   162.58580473923766     
   75.116792937235829     
   64.629669145963803     
   40.740794828999562     
   20.709501284779076     
   37.044679713559539     
   20.194628915511959     
   20.175826431108444     
   27.101075682140284     
   20.857905473920304     
   184.26029940276356     
   20.085940859146049     
   20.064435445458827     
   106.77205261916063     
   20.224637178308072     
   103.23355945034014     
   26.526293401986479     
   58.174334957214612     
   20.814000275308903     
   62.854950165144324     
   66.679983290710524     
   58.416864039997151     
   113.25179164618237     
   20.111928052251233     
   51.455719978000488     
   28.963643455212257     
   29.915984757330275     
   148.80656661072442     
   33.009867444919735     
   173.32598843808867     
   23.957698230519110     
   24.607045631212607     
   26.238018549219134     
   82.823249752341241     
   179.68424426646405     
   21.007449337217704     
   69.729058644717171     
   176.62678691982367     
   20.000000000003020     
   24.904273011148131     
   25.350168074502680     
   213.35485133952440     
   20.000000000040696     
   20.000000000005365     
   22.710887646855657     
   20.150595608587945     
   27.526129757624236     
   44.450195183878670     
   354.65468421020250     
   224.59212179058943     
   140.10433363418272     
   163.85538657942081     
   68.698564356420491     
   37.691141529952596     
   25.623728478401674     
   21.555741736204595     
   20.370931197397166     
   20.076132858598687     
   20.013596756295438     
   20.002086880794302     
   20.000274892233634     
   20.000031076930725     
   20.000003039750773     
   20.000000251199040     
   20.000000018627404     
   20.000000001161993     
   20.000000000063206     
   20.000000000023221     
   20.000000000008487     
   20.000000000014989     
   20.000000000000995     
   20.000000000001855     
   20.000000000000000     
   20.000000000000000     
   20.000000000000000     
   20.000000000000000     
   20.000000000001322     
   20.000000000000000     
   20.000000000000000     
   20.000000000000000     
   20.000000000000000     
   20.000000000000323     
   20.000000000002107     
   20.000000000005929     
   20.000000000003531     
   20.000000000016620     
   20.000000000010008     
   20.000000000337842     
   20.000000005910305     
   20.000000089544219     
   20.000001173701246     
   20.000013272334890     
   20.000129235741202     
   20.001084057331788     
   20.007830550918516     
   20.048671439729844     
   20.260837496229151     
   21.205362331615230     
   24.825155169404990     
   27.420091227564210     
   25.932311609574523     
   31.270939517425994     
   36.736801740422528     
   70.464785999416861     
   152.89166863689081     
   327.89651247360871     
   28.215504644481754     
   80.287587067701466     
   89.086104490133707     
   50.160037321415977     
   20.000000000000462     
   32.350282809821159     
   133.70892880928818     
   22.558948327308698     
   36.692123816090110     
   20.840966697530121     
   20.000000000000778     
   21.386761640901064     
   31.267011362559074     
   115.28519263235945     
   23.142395671512705     
   191.77816342364207     
   20.639194187110565     
   24.067509904373274     
   55.084240662417066     
   38.287509122662307     
   22.052295879663340     
   34.105686118553749     
   21.183743403940980     
   21.253956458432160     
   20.774596754896660     
   22.268537987398279     
   21.629816450509733     
   43.018254570371894     
   141.68422357740712     
   69.322050670157822     
   33.551986233018162     
   21.055176603569528     
   20.259861912974820     
   22.197905315794078     
   35.716893879864152     
   24.223221706634291     
   21.703804601249612     
   23.471622916433610     
   20.383375740974312     
   29.481271841961213     
   20.508771898751405     
   20.524454699292757     
   20.272168512057611     
   20.462569105424620     
   20.369397926165149     
   55.157624772137289     
   20.615389605803738     
   58.677486867021599     
   20.130867286033510     
   20.306693919762463     
   31.562465576555169     
   20.216377462099516     
   20.027486740245415     
   20.152922549256825     
   30.677021424632798     
   28.378378684497452     
   32.528908821826640     
   20.124420818497132     
   20.048864445760287     
   73.089958587186175     
   20.034346647464858     
   93.580126358390842     
   20.090853292937901     
   20.072471287795313     
   20.004276839984968     
   20.041841396304218     
   20.051283692720880     
   85.352777093117595     
   20.033250867837261     
   20.040309033205393     
   20.023301260833463     
   20.028815437851900     
   20.005531933400167     
   20.022166983418032     
   20.007874203228802     
   20.015846516157939     
   20.012104760135191     
   20.008591179363531     
   20.000567690629360     
   20.003543561818240     
   20.006431152790967     
   20.004497349807174     
   20.003374065936779     
   20.000772727346806     
   20.001104887286573     
   20.002353431607464     
   20.001753468708571     
   20.001210576168202     
   20.000065959207891     
   20.000463974261496     
   20.000884774953263     
   20.000601088650761     
   20.000440711264435     
   20.000089639387411     
   20.000134376300263     
   20.000300054448122     
   20.000217757822483     
   20.000147102919254     
   20.000006534446523     
   20.000052340847528     
   20.000104719737799     
   20.000069703358406     
   20.000049774426991     
   20.000009443523126     
   20.000014008221839     
   20.000033020705825     