# vtk DataFile Version 2.0
 temperature
 ASCII
 DATASET UNSTRUCTURED_GRID
 POINTS         773  double
   0.0000000000000000        0.0000000000000000        0.0000000000000000     
   3.5000000000000000        0.0000000000000000        0.0000000000000000     
   3.5000000000000000        40.000000000000000        0.0000000000000000     
   0.0000000000000000        40.000000000000000        0.0000000000000000     
  0.43750000000000000        0.0000000000000000        0.0000000000000000     
  0.87500000000000000        0.0000000000000000        0.0000000000000000     
   1.3125000000000000        0.0000000000000000        0.0000000000000000     
   1.7500000000000000        0.0000000000000000        0.0000000000000000     
   2.1875000000000000        0.0000000000000000        0.0000000000000000     
   2.6250000000000000        0.0000000000000000        0.0000000000000000     
   3.0625000000000000        0.0000000000000000        0.0000000000000000     
   3.5000000000000000       0.50000000000000000        0.0000000000000000     
   3.5000000000000000        1.0000000000000000        0.0000000000000000     
   3.5000000000000000        1.5000000000000000        0.0000000000000000     
   3.5000000000000000        2.0000000000000000        0.0000000000000000     
   3.5000000000000000        2.5000000000000000        0.0000000000000000     
   3.5000000000000000        3.0000000000000000        0.0000000000000000     
   3.5000000000000000        3.5000000000000000        0.0000000000000000     
   3.5000000000000000        4.0000000000000000        0.0000000000000000     
   3.5000000000000000        4.5000000000000000        0.0000000000000000     
   3.5000000000000000        5.0000000000000000        0.0000000000000000     
   3.5000000000000000        5.5000000000000000        0.0000000000000000     
   3.5000000000000000        6.0000000000000000        0.0000000000000000     
   3.5000000000000000        6.5000000000000000        0.0000000000000000     
   3.5000000000000000        7.0000000000000000        0.0000000000000000     
   3.5000000000000000        7.5000000000000000        0.0000000000000000     
   3.5000000000000000        8.0000000000000000        0.0000000000000000     
   3.5000000000000000        8.5000000000000000        0.0000000000000000     
   3.5000000000000000        9.0000000000000000        0.0000000000000000     
   3.5000000000000000        9.5000000000000000        0.0000000000000000     
   3.5000000000000000        10.000000000000000        0.0000000000000000     
   3.5000000000000000        10.500000000000000        0.0000000000000000     
   3.5000000000000000        11.000000000000000        0.0000000000000000     
   3.5000000000000000        11.500000000000000        0.0000000000000000     
   3.5000000000000000        12.000000000000000        0.0000000000000000     
   3.5000000000000000        12.500000000000000        0.0000000000000000     
   3.5000000000000000        13.000000000000000        0.0000000000000000     
   3.5000000000000000        13.500000000000000        0.0000000000000000     
   3.5000000000000000        14.000000000000000        0.0000000000000000     
   3.5000000000000000        14.500000000000000        0.0000000000000000     
   3.5000000000000000        15.000000000000000        0.0000000000000000     
   3.5000000000000000        15.500000000000000        0.0000000000000000     
   3.5000000000000000        16.000000000000000        0.0000000000000000     
   3.5000000000000000        16.500000000000000        0.0000000000000000     
   3.5000000000000000        17.000000000000000        0.0000000000000000     
   3.5000000000000000        17.500000000000000        0.0000000000000000     
   3.5000000000000000        18.000000000000000        0.0000000000000000     
   3.5000000000000000        18.500000000000000        0.0000000000000000     
   3.5000000000000000        19.000000000000000        0.0000000000000000     
   3.5000000000000000        19.500000000000000        0.0000000000000000     
   3.5000000000000000        20.000000000000000        0.0000000000000000     
   3.5000000000000000        20.500000000000000        0.0000000000000000     
   3.5000000000000000        21.000000000000000        0.0000000000000000     
   3.5000000000000000        21.500000000000000        0.0000000000000000     
   3.5000000000000000        22.000000000000000        0.0000000000000000     
   3.5000000000000000        22.500000000000000        0.0000000000000000     
   3.5000000000000000        23.000000000000000        0.0000000000000000     
   3.5000000000000000        23.500000000000000        0.0000000000000000     
   3.5000000000000000        24.000000000000000        0.0000000000000000     
   3.5000000000000000        24.500000000000000        0.0000000000000000     
   3.5000000000000000        25.000000000000000        0.0000000000000000     
   3.5000000000000000        25.500000000000000        0.0000000000000000     
   3.5000000000000000        26.000000000000000        0.0000000000000000     
   3.5000000000000000        26.500000000000000        0.0000000000000000     
   3.5000000000000000        27.000000000000000        0.0000000000000000     
   3.5000000000000000        27.500000000000000        0.0000000000000000     
   3.5000000000000000        28.000000000000000        0.0000000000000000     
   3.5000000000000000        28.500000000000000        0.0000000000000000     
   3.5000000000000000        29.000000000000000        0.0000000000000000     
   3.5000000000000000        29.500000000000000        0.0000000000000000     
   3.5000000000000000        30.000000000000000        0.0000000000000000     
   3.5000000000000000        30.500000000000000        0.0000000000000000     
   3.5000000000000000        31.000000000000000        0.0000000000000000     
   3.5000000000000000        31.500000000000000        0.0000000000000000     
   3.5000000000000000        32.000000000000000        0.0000000000000000     
   3.5000000000000000        32.500000000000000        0.0000000000000000     
   3.5000000000000000        33.000000000000000        0.0000000000000000     
   3.5000000000000000        33.500000000000000        0.0000000000000000     
   3.5000000000000000        34.000000000000000        0.0000000000000000     
   3.5000000000000000        34.500000000000000        0.0000000000000000     
   3.5000000000000000        35.000000000000000        0.0000000000000000     
   3.5000000000000000        35.500000000000000        0.0000000000000000     
   3.5000000000000000        36.000000000000000        0.0000000000000000     
   3.5000000000000000        36.500000000000000        0.0000000000000000     
   3.5000000000000000        37.000000000000000        0.0000000000000000     
   3.5000000000000000        37.500000000000000        0.0000000000000000     
   3.5000000000000000        38.000000000000000        0.0000000000000000     
   3.5000000000000000        38.500000000000000        0.0000000000000000     
   3.5000000000000000        39.000000000000000        0.0000000000000000     
   3.5000000000000000        39.500000000000000        0.0000000000000000     
   3.0625000000000000        40.000000000000000        0.0000000000000000     
   2.6250000000000000        40.000000000000000        0.0000000000000000     
   2.1875000000000000        40.000000000000000        0.0000000000000000     
   1.7500000000000000        40.000000000000000        0.0000000000000000     
   1.3125000000000000        40.000000000000000        0.0000000000000000     
  0.87500000000000000        40.000000000000000        0.0000000000000000     
  0.43750000000000000        40.000000000000000        0.0000000000000000     
   0.0000000000000000        39.500000000000000        0.0000000000000000     
   0.0000000000000000        39.000000000000000        0.0000000000000000     
   0.0000000000000000        38.500000000000000        0.0000000000000000     
   0.0000000000000000        38.000000000000000        0.0000000000000000     
   0.0000000000000000        37.500000000000000        0.0000000000000000     
   0.0000000000000000        37.000000000000000        0.0000000000000000     
   0.0000000000000000        36.500000000000000        0.0000000000000000     
   0.0000000000000000        36.000000000000000        0.0000000000000000     
   0.0000000000000000        35.500000000000000        0.0000000000000000     
   0.0000000000000000        35.000000000000000        0.0000000000000000     
   0.0000000000000000        34.500000000000000        0.0000000000000000     
   0.0000000000000000        34.000000000000000        0.0000000000000000     
   0.0000000000000000        33.500000000000000        0.0000000000000000     
   0.0000000000000000        33.000000000000000        0.0000000000000000     
   0.0000000000000000        32.500000000000000        0.0000000000000000     
   0.0000000000000000        32.000000000000000        0.0000000000000000     
   0.0000000000000000        31.500000000000000        0.0000000000000000     
   0.0000000000000000        31.000000000000000        0.0000000000000000     
   0.0000000000000000        30.500000000000000        0.0000000000000000     
   0.0000000000000000        30.000000000000000        0.0000000000000000     
   0.0000000000000000        29.500000000000000        0.0000000000000000     
   0.0000000000000000        29.000000000000000        0.0000000000000000     
   0.0000000000000000        28.500000000000000        0.0000000000000000     
   0.0000000000000000        28.000000000000000        0.0000000000000000     
   0.0000000000000000        27.500000000000000        0.0000000000000000     
   0.0000000000000000        27.000000000000000        0.0000000000000000     
   0.0000000000000000        26.500000000000000        0.0000000000000000     
   0.0000000000000000        26.000000000000000        0.0000000000000000     
[...]
 CELL_DATA        1368
 SCALARS T double
 LOOKUP_TABLE default
   20.300381705185277     
   22.574110592944038     
   1672.2058567999170     
   37.830501822087079     
   20.000000004294428     
   20.675725428706652     
   1275.8163791515899     
   20.603450686932966     
   20.023233071109892     
   20.487864840980443     
   20.040487931212187     
   32.330068501939273     
   20.435512111925430     
   39.436901707556913     
   33.388504046112615     
   1208.6748173975088     
   1673.2567784646251     
   20.097743144938686     
   20.085084717563952     
   21.093322922791160     
   20.067999872689519     
   20.002297262978434     
   1733.8787714922985     
   20.004286538820057     
   20.251037659005846     
   22.618440006781441     
   20.057927832011046     
   20.810002839507387     
   20.343258851791255     
   20.027782421832477     
   21.112363945656799     
   20.000000008961855     
   22.197244097793213     
   22.813832608761324     
   22.830822879998379     
   20.000000007220457     
   20.163737574108499     
   20.011146763634201     
   20.047123056431431     
   20.009536879968099     
   20.006109230335561     
   20.438475941393214     
   20.007423067517198     
   38.031929275705494     
   20.119361017439626     
   418.74606275735971     
   411.27385293932991     
   20.356313994476796     
   20.490277658723439     
   689.50034494114300     
   693.41229418469754     
   20.032866789982226     
   20.169362957879276     
   20.000000006716306     
   1705.9692333774149     
   20.000000005642868     
   20.000000020744817     
   20.001944185270794     
   20.001003897646974     
   20.002849175240545     
   20.000000028680656     
   36.944153155152179     
   20.004993740910855     
   20.000000068086290     
   20.920502022522378     
   21.214847527840593     
   20.019292527146757     
   21.193468014082725     
   20.046488958519355     
   20.066300063025945     
   20.000000016171661     
   1673.8012088478361     
   20.000000037167027     
   20.059834533219636     
   20.013750130515028     
   20.020600299230917     
   20.000000112708669     
   20.000000357034939     
   20.000000012322253     
   394.08884975547033     
   20.003401450757980     
   20.000867163695354     
   232.99000400841089     
   20.000422887223362     
   139.15219522678333     
   20.134873412086904     
   20.186463459984385     
   390.30911916913476     
   20.001550827921307     
   854.40214592867630     
   20.004771243873769     
   20.007157019066018     
   53.188024211870676     
   20.000001759374594     
   798.36784205166953     
   20.000133005461006     
   36.365301867678724     
   20.000000576781318     
   20.000175691555281     
   20.000000154967811     
   231.42988834606336     
   20.000000088359851     
   205.01645343574293     
   207.56094798255745     
   20.006375323754561     
   20.001297710361172     
   20.000000011992078     
   20.020463970317277     
   20.000000009436484     
   20.000000195015666     
   24.911484626887255     
   506.74900786872053     
   23.874401508642393     
   20.000064560023560     
   20.000000051395581     
   20.000000004339608     
   125.29084673561624     
   21.653503728936222     
   126.52451144603550     
   20.000020741785626     
   20.000000088810523     
   20.000057897680172     
   20.000779688651704     
   138.26466799935648     
   20.670144254231861     
   292.06499755296034     
   20.015650966926017     
   20.022174357911517     
   20.000550572954634     
   20.189692496764664     
   20.000000016242879     
   20.000083913035542     
   516.90152236165227     
   20.254980030513206     
   20.000000457628296     
   20.000002799717727     
   20.091053301864303     
   78.305398982816584     
   1316.9047071980490     
   78.998990577898638     
   1003.7473102872266     
   473.29697333625467     
   174.61215923921196     
   20.000102380487110     
   20.000353640242011     
   20.000016896433419     
   495.92432505401740     
   20.000226128451530     
   20.000000272352121     
   20.000000461035945     
   20.000020321717727     
   295.81545597986087     
   20.000324975969122     
   50.971490146256770     
   51.238686653673099     
   20.000000783529295     
   20.000014655681589     
   104.63722278393332     
   20.000652580580727     
   20.000002220837072     
   20.000000980829686     
   20.000000050027744     
   34.503413891445483     
   52.885249402069746     
   20.001986665618706     
   20.912537160332818     
   20.000002245685501     
   20.000000003956838     
   234.53768091426645     
   176.74159336004385     
   20.000043868082805     
   20.000007537251452     
   20.000001346384384     
   36.226082671725806     
   42.551538730641447     
   20.000010784225179     
   1008.0621079389775     
   20.137712633008292     
   105.54006931963642     
   20.000003758903389     
   152.58693187725027     
   144.71146239113574     
   30.837987785214501     
   20.000004629183049     
   29.413346365404742     
   20.000022466993673     
   20.000606253055977     
   20.000936330086585     
   49.295491434117082     
   20.000000011549943     
   249.35678996505450     
   20.016142900923072     
   23.492778672510607     
   23.468494356592011     
   25.451245285530824     
   20.000000005649973     
   571.91071301796887     
   20.000028247476045     
   20.000000010339839     
   20.000006260605204     
   23.792826181677974     
   20.000010331592144     
   94.146822598062940     
   20.000252836400506     
   20.000392626986809     
   20.000054363569980     
   89.506114530087302     
   21.903887101639459     
   20.000007645469157     
   20.000000013109382     
   20.000012609458775     
   20.000000026373762     
   22.372841184424683     
   20.000000004938258     
   20.000066598158480     
   20.000004566626611     
   20.000137050719992     
   20.000271540260787     
   20.022857869909572     
   20.000016828395189     
   21.617782308364582     
   20.000000014922346     
   20.000564023773524     
   47.379312886461207     
   20.000161012826830     
   42.903116935227942     
   20.000168119946682     
   20.000002753346621     
   20.000000008113176     
   20.000003493496237     
   20.000032651733655     
   20.000000020431859     
   20.655069020356379     
   20.000000264948454     
   20.983728061991645     
   20.000002106757080     
   20.000526356253651     
   20.000000008988664     
   20.249102550138989     
   20.000639200816476     
   28.144469595631389     
   30.977302309861933     
   313.44669221664418     
   20.313113269827785     
   45.549771498344811     
   59.921072902564951     
   1429.9078875859641     
   57.327104585357560     
   20.088907211304324     
   20.000001647933008     
   20.000000577576266     
   20.001906413214996     
   20.000033596242741     
   20.384696323573248     
   1510.8671995356626     
   20.000000434881937     
   20.000001258003934     
   20.000005745009375     
   20.002289633948241     
   20.000041255660257     
   20.000000027542370     
   729.68293219149382     
   564.13253218725413     
   20.006489763226082     
   20.000999635810025     
   20.000145286075494     
   20.141699171244884     
   20.000000025382700     
   20.007717251494391     
   1454.7874220353624     
   25.592208501274506     
   20.041261942792769     
   20.000025439191226     
   20.000038237443899     
   20.000023595995462     
   20.000000027146509     
   20.020797142899728     
   20.000000024706008     
   1374.3076280097589     
   1186.8612014761115     
   20.000000003546290     
   1245.4132590455083     
   20.000000031383760     
   20.024484375525372     
   1360.9934867817035     
   20.000847754146310     
   27.210949698258830     
   859.58072301177026     
   1383.5278367225976     
   20.000000132189289     
   22.446085288091922     
   20.000000007118061     
   20.000000983165986     
   20.000024856433274     
   20.000040509754715     
   20.000000338597676     
   20.000000012172990     
   20.000000145930905     
   20.000000010044761     
   911.90254352958516     
   21.014871130321200     
   20.000000740859363     
   646.47768664347177     
   20.000000008812457     
   20.000000252402639     
   20.397287960944841     
   20.146405384249729     
   20.000000004343725     
   20.000000006958789     
   1168.5291760279770     
   20.000000019168077     
   1284.1629211248305     
   1061.3369125043384     
   20.000036113147889     
   20.000027417422586     
   1472.3286966824262     
   26.777982141027387     
   318.30359334855513     
   20.004270019539124     
   20.000000011044666     
   20.000000006158942     
   20.000000028839509     
   769.20132623058191     
   20.000010400836498     
   20.000000017850333     
   20.000001320269760     
   20.000008474028043     
   20.000338477623380     
   1311.0093496787413     
   759.09894635577155     
   20.000000010893327     
   20.000000022015758     
   42.288259766808196     
   1189.5827843024374     
   20.000009346965367     
   20.000000047984106     
   1206.0808370710706     
   1280.1436583080947     
   20.000408109981628     
   20.000086764609492     
   996.78263266232761     
   20.000000018605043     
   20.000000145310846     
   20.000000065711369     
   20.000000083543810     
   901.04603799831477     
   20.000105690260654     
   20.000000113856654     
   20.000000165972224     
   26.097874388019871     
   24.397057038998408     
   20.000000059010183     
   20.000000015565057     
   20.000651900867702     
   20.000000038787093     
   1130.8770334826204     
   20.000000102199230     
   1027.4373757191283     
   20.000000043734723     
   847.37351111041096     
   20.000000014095217     
   962.38330850400689     
   765.14299339041258     
   1023.6363100502392     
   1198.5967627088785     
   1022.8991165013006     
   20.000000035868783     
   20.000000015520214     
   20.000000033917260     
   861.34303149121035     
   825.26457621845009     
   747.06910738426598     
   720.16268423118265     
   1106.7568036398959     
   648.22770844330489     
   20.000009010002930     
   20.000000048041361     
   20.000000228893338     
   20.000000198242599     
   1227.2724297222464     
   873.39940758356670     
   879.12006916244422     
   951.61141665871855     
   615.41418246219814     
   704.49035825155715     
   20.000000207538996     
   20.000000154943788     
   20.000000826804147     
   541.70370732096717     
   814.81939723347614     
   539.73087933574163     
   20.000000285258338     
   20.000001458858900     
   20.000002039002069     
   612.72980651803334     
   455.67574807240993     
   747.35858277032094     
   20.000000723192382     
   592.28842392391073     
   633.94226719581923     
   20.000000249200738     
   20.000001136116470     
   641.01461563373232     
   20.000003386785576     
   20.000001210469925     
   520.17250339746283     
   20.000002437299127     
   20.000001043065463     
   20.000000788095129     
   20.000003874247160     
   548.01535505468371     
   439.11251293827155     
   463.35324682389262     
   20.000000303736162     
   369.69454973279829     
   391.92261454242339     
   20.000008166133139     
   20.000010490968638     
   20.000000428330328     
   20.000010730104101     
   695.23554766946279     
   20.000027503868470     
   20.000034329006400     
   20.000044631398268     
   20.000013368139559     
   286.47072802438890     
   20.000021927607222     
   20.000017092672810     
   383.88251474931553     
   20.000045128010949     
   20.000027824415692     
   20.000000513991981     
   20.000070333356092     
   20.000061022650375     
   20.000045136632860     
   20.000113742649617     
   20.000035554889646     
   20.000282616924352     
   20.000347277345622     
   20.001069701838592     
   20.000690116149823     
   20.000557557803816     
   20.000861094412155     
   20.001612597860721     
   20.005539993493151     
   20.002014108276772     
   20.001627366936944     
   20.003752260229906     
   20.002479839649329     
   20.017918712471296     
   20.006846974388569     
   20.005589492157686     
   20.012386384500900     
   20.008346830362107     
   20.009539473918529     
   20.003048486318963     
   20.014000064162421     
   20.010748484540880     
   20.007375630008013     
   20.006448397259746     
   20.054363083580171     
   20.021915115202383     
   20.018074252016081     
   20.038502032990721     
   20.026452033512392     
   20.010157400031069     
   370.80878681193701     
   20.155924521501593     
   20.066102619792638     
   20.054964210949574     
   20.112175548677047     
   20.078562937965273     
   20.031869301434249     
   20.120852927644275     
   20.092274326222057     
   20.058618652573834     
   20.083441195630225     
   20.421327064024897     
   20.187540046312076     
   20.157571102845523     
   20.309051839808912     
   20.221379946949529     
   20.094202492907446     
   20.066111872566317     
   21.074429906992581     
   20.501575548645640     
   20.425642276695154     
   20.802829483238874     
   20.586475849906346     
   20.261954904745171     
   20.791358398983476     
   20.627130195434447     
   20.420789932094227     
   20.576431107953887     
   22.587881475130565     
   21.266076874582019     
   21.084991767363153     
   21.971306306169289     
   21.463820058399506     
   20.687125065618460     
   224.30994399813031     
   256.68111187446243     
   235.66428056120333     
   20.465405439341847     
   23.449980649087255     
   120.39664808290262     
   273.62694789103637     
   129.86370492522249     
   116.84797226149328     
   135.01424312509897     
   25.896429910307369     
   258.71050243200602     
   221.85393658105440     
   277.41826077782605     
   23.019904184814898     
   22.612534936533837     
   63.838696666128655     
   216.48476261545375     
   109.95713058729248     
   60.380384005382965     
   132.81604515006114     
   21.701906472671805     
   98.833137291414829     
   224.13657896366274     
   23.995390022875824     
   24.578412388218517     
   306.59284807342374     
   183.63660561736671     
   163.84848894906011     
   112.67006946922770     
   36.115330210681648     
   95.651472209505798     
   29.932798511273610     
   29.064470214355886     
   70.638476489902004     
   37.283758571296914     
   316.01427833275778     
   26.808823795414003     
   25.948666344954667     
   230.76747599866169     
   30.038365247848294     
   221.88329558235671     
   71.818191507878907     
   142.28224992431493     
   36.258243881764159     
   157.94991986980278     
   159.15710985900765     
   153.73822572093221     
   219.46407469068552     
   27.677704378175616     
   138.60472463906149     
   83.897603494815243     
   84.228163945625241     
   279.77302232744017     
   83.824888020245965     
   312.42480822343799     
   54.534942486335318     
   60.570869519179595     
   69.449697736005319     
   194.80261618196016     
   325.04364333993510     
   40.043646707362846     
   168.24968933212571     
   261.60829256366821     
   20.000112961434073     
   63.179055014269593     
   67.324714917863645     
   306.58038114335750     
   20.000366455726461     
   20.000151800887956     
   53.301356368919308     
   28.828856210450819     
   73.724647790180754     
   119.99369201332777     
   434.22511040029048     
   310.44887968057333     
   223.64922166870812     
   254.95328679776728     
   136.23594441254750     
   85.507240443558445     
   55.618919366984436     
   38.611307745738216     
   29.301049162927455     
   24.391464773886863     
   21.985597566619273     
   20.845335920741103     
   20.341762835795549     
   20.129882257235263     
   20.046638611288913     
   20.015531300177766     
   20.005031514656149     
   20.001494010156978     
   20.000424571323624     
   20.000274962881459     
   20.000176586412326     
   20.000236774997337     
   20.000071484466027     
   20.000096599678141     
   20.000017571550632     
   20.000004036158764     
   20.000000869746970     
   20.000000177225733     
   20.000115317819667     
   20.000000119950187     
   20.000000615905730     
   20.000002967324804     
   20.000013494716963     
   20.000057440737979     
   20.000145674441615     
   20.000228901734310     
   20.000182570425228     
   20.000358599446269     
   20.000287174222827     
   20.001327058052379     
   20.004602125284983     
   20.015024963658597     
   20.046208357472054     
   20.133777333752054     
   20.364768545135540     
   20.938372677753645     
   22.279757548444856     
   25.238555309875736     
   31.409817894061977     
   43.633824185325160     
   66.754152960972888     
   78.104164135144316     
   71.785459319223918     
   92.014554085706408     
   108.50678348155405     
   181.05923141911342     
   302.80012249997020     
   501.34023717713995     
   78.887522929334025     
   187.38566073528048     
   198.94399197320703     
   133.55028521149382     
   20.000072436869722     
   92.733924712760242     
   263.28302135333871     
   51.507776694048147     
   101.46412957832150     
   39.039462065984601     
   20.000091392748374     
   44.238083921739147     
   86.192375057799410     
   236.41250226038167     
   54.458365386519986     
   330.93600505065154     
   36.494828430765132     
   59.836441000744117     
   141.93038763153115     
   101.67285342200822     
   47.912727997238939     
   95.473559677144110     
   40.676284271840828     
   41.962266357745740     
   37.414015021432277     
   51.286240310503224     
   45.341004784597835     
   114.17152954083180     
   264.83241851452988     
   156.30788850272785     
   99.120395932729025     
   40.986932692038003     
   30.019934958859501     
   50.351664066330457     
   96.549568813023043     
   61.582510401740706     
   46.507020604160360     
   58.075971132087105     
   32.930438837336204     
   81.318036803958364     
   34.963094678335167     
   35.416605078239883     
   30.566675269116011     
   33.591036066082644     
   32.406968161439551     
   133.06747634763093     
   35.834395427044214     
   136.02648978825496     
   27.807333087901625     
   31.771511876587024     
   81.934528014692390     
   29.625956821449087     
   23.490430887221564     
   28.036827123839213     
   82.577163669607359     
   74.091469299121229     
   86.731567624838789     
   27.397999477359967     
   24.573517328045270     
   167.40886634164954     
   23.798004041682461     
   198.33347387800089     
   26.308812924806475     
   25.775405849117949     
   21.496806005982119     
   23.901064992628765     
   24.838670289023163     
   188.96123564339882     
   23.588067447976687     
   24.402296780999045     
   23.507815382962491     
   23.708350635797274     
   21.648542366602531     
   23.337241796513407     
   21.974743973274339     
   22.822555415821018     
   22.536301812867958     
   22.135474414891576     
   20.600704269969100     
   21.493392853856154     
   21.906533542820213     
   21.593188997634627     
   21.420761980179552     
   20.676678253199817     
   20.810007896084116     
   21.189501828332080     
   21.059290324718326     
   20.881664169066912     
   20.231678653850274     
   20.600499938109941     
   20.780298937451516     
   20.644621353999714     
   20.570089720283068     
   20.259855262385919     
   20.317825416957305     
   20.472890663975026     
   20.417085283762759     
   20.344453944232907     
   20.083370414014258     
   20.228168407839192     
   20.301863585273466     
   20.247498935601435     
   20.216701944564388     
   20.095996530634071     
   20.116545330372176     
   20.177856241241990     