# vtk DataFile Version 2.0
 temperature
 ASCII
 DATASET UNSTRUCTURED_GRID
 POINTS         773  double
   0.0000000000000000        0.0000000000000000        0.0000000000000000     
   3.5000000000000000        0.0000000000000000        0.0000000000000000     
   3.5000000000000000        40.000000000000000        0.0000000000000000     
   0.0000000000000000        40.000000000000000        0.0000000000000000     
  0.43750000000000000        0.0000000000000000        0.0000000000000000     
  0.87500000000000000        0.0000000000000000        0.0000000000000000     
   1.3125000000000000        0.0000000000000000        0.0000000000000000     
   1.7500000000000000        0.0000000000000000        0.0000000000000000     
   2.1875000000000000        0.0000000000000000        0.0000000000000000     
   2.6250000000000000        0.0000000000000000        0.0000000000000000     
   3.0625000000000000        0.0000000000000000        0.0000000000000000     
   3.5000000000000000       0.50000000000000000        0.0000000000000000     
   3.5000000000000000        1.0000000000000000        0.0000000000000000     
   3.5000000000000000        1.5000000000000000        0.0000000000000000     
   3.5000000000000000        2.0000000000000000        0.0000000000000000     
   3.5000000000000000        2.5000000000000000        0.0000000000000000     
   3.5000000000000000        3.0000000000000000        0.0000000000000000     
   3.5000000000000000        3.5000000000000000        0.0000000000000000     
   3.5000000000000000        4.0000000000000000        0.0000000000000000     
   3.5000000000000000        4.5000000000000000        0.0000000000000000     
   3.5000000000000000        5.0000000000000000        0.0000000000000000     
   3.5000000000000000        5.5000000000000000        0.0000000000000000     
   3.5000000000000000        6.0000000000000000        0.0000000000000000     
   3.5000000000000000        6.5000000000000000        0.0000000000000000     
   3.5000000000000000        7.0000000000000000        0.0000000000000000     
   3.5000000000000000        7.5000000000000000        0.0000000000000000     
   3.5000000000000000        8.0000000000000000        0.0000000000000000     
   3.5000000000000000        8.5000000000000000        0.0000000000000000     
   3.5000000000000000        9.0000000000000000        0.0000000000000000     
   3.5000000000000000        9.5000000000000000        0.0000000000000000     
   3.5000000000000000        10.000000000000000        0.0000000000000000     
   3.5000000000000000        10.500000000000000        0.0000000000000000     
   3.5000000000000000        11.000000000000000        0.0000000000000000     
   3.5000000000000000        11.500000000000000        0.0000000000000000     
   3.5000000000000000        12.000000000000000        0.0000000000000000     
   3.5000000000000000        12.500000000000000        0.0000000000000000     
   3.5000000000000000        13.000000000000000        0.0000000000000000     
   3.5000000000000000        13.500000000000000        0.0000000000000000     
   3.5000000000000000        14.000000000000000        0.0000000000000000     
   3.5000000000000000        14.500000000000000        0.0000000000000000     
   3.5000000000000000        15.000000000000000        0.0000000000000000     
   3.5000000000000000        15.500000000000000        0.0000000000000000     
   3.5000000000000000        16.000000000000000        0.0000000000000000     
   3.5000000000000000        16.500000000000000        0.0000000000000000     
   3.5000000000000000        17.000000000000000        0.0000000000000000     
   3.5000000000000000        17.500000000000000        0.0000000000000000     
   3.5000000000000000        18.000000000000000        0.0000000000000000     
   3.5000000000000000        18.500000000000000        0.0000000000000000     
   3.5000000000000000        19.000000000000000        0.0000000000000000     
   3.5000000000000000        19.500000000000000        0.0000000000000000     
   3.5000000000000000        20.000000000000000        0.0000000000000000     
   3.5000000000000000        20.500000000000000        0.0000000000000000     
   3.5000000000000000        21.000000000000000        0.0000000000000000     
   3.5000000000000000        21.500000000000000        0.0000000000000000     
   3.5000000000000000        22.000000000000000        0.0000000000000000     
   3.5000000000000000        22.500000000000000        0.0000000000000000     
   3.5000000000000000        23.000000000000000        0.0000000000000000     
   3.5000000000000000        23.500000000000000        0.0000000000000000     
   3.5000000000000000        24.000000000000000        0.0000000000000000     
   3.5000000000000000        24.500000000000000        0.0000000000000000     
   3.5000000000000000        25.000000000000000        0.0000000000000000     
   3.5000000000000000        25.500000000000000        0.0000000000000000     
   3.5000000000000000        26.000000000000000        0.0000000000000000     
   3.5000000000000000        26.500000000000000        0.0000000000000000     
   3.5000000000000000        27.000000000000000        0.0000000000000000     
   3.5000000000000000        27.500000000000000        0.0000000000000000     
   3.5000000000000000        28.000000000000000        0.0000000000000000     
   3.5000000000000000        28.500000000000000        0.0000000000000000     
   3.5000000000000000        29.000000000000000        0.0000000000000000     
   3.5000000000000000        29.500000000000000        0.0000000000000000     
   3.5000000000000000        30.000000000000000        0.0000000000000000     
   3.5000000000000000        30.500000000000000        0.0000000000000000     
   3.5000000000000000        31.000000000000000        0.0000000000000000     
   3.5000000000000000        31.500000000000000        0.0000000000000000     
   3.5000000000000000        32.000000000000000        0.0000000000000000     
   3.5000000000000000        32.500000000000000        0.0000000000000000     
   3.5000000000000000        33.000000000000000        0.0000000000000000     
   3.5000000000000000        33.500000000000000        0.0000000000000000     
   3.5000000000000000        34.000000000000000        0.0000000000000000     
   3.5000000000000000        34.500000000000000        0.0000000000000000     
   3.5000000000000000        35.000000000000000        0.0000000000000000     
   3.5000000000000000        35.500000000000000        0.0000000000000000     
   3.5000000000000000        36.000000000000000        0.0000000000000000     
   3.5000000000000000        36.500000000000000        0.0000000000000000     
   3.5000000000000000        37.000000000000000        0.0000000000000000     
   3.5000000000000000        37.500000000000000        0.0000000000000000     
   3.5000000000000000        38.000000000000000        0.0000000000000000     
   3.5000000000000000        38.500000000000000        0.0000000000000000     
   3.5000000000000000        39.000000000000000        0.0000000000000000     
   3.5000000000000000        39.500000000000000        0.0000000000000000     
   3.0625000000000000        40.000000000000000        0.0000000000000000     
   2.6250000000000000        40.000000000000000        0.0000000000000000     
   2.1875000000000000        40.000000000000000        0.0000000000000000     
   1.7500000000000000        40.000000000000000        0.0000000000000000     
   1.3125000000000000        40.000000000000000        0.0000000000000000     
  0.87500000000000000        40.000000000000000        0.0000000000000000     
  0.43750000000000000        40.000000000000000        0.0000000000000000     
   0.0000000000000000        39.500000000000000        0.0000000000000000     
   0.0000000000000000        39.000000000000000        0.0000000000000000     
   0.0000000000000000        38.500000000000000        0.0000000000000000     
   0.0000000000000000        38.000000000000000        0.0000000000000000     
   0.0000000000000000        37.500000000000000        0.0000000000000000     
   0.0000000000000000        37.000000000000000        0.0000000000000000     
   0.0000000000000000        36.500000000000000        0.0000000000000000     
   0.0000000000000000        36.000000000000000        0.0000000000000000     
   0.0000000000000000        35.500000000000000        0.0000000000000000     
   0.0000000000000000        35.000000000000000        0.0000000000000000     
   0.0000000000000000        34.500000000000000        0.0000000000000000     
   0.0000000000000000        34.000000000000000        0.0000000000000000     
   0.0000000000000000        33.500000000000000        0.0000000000000000     
   0.0000000000000000        33.000000000000000        0.0000000000000000     
   0.0000000000000000        32.500000000000000        0.0000000000000000     
   0.0000000000000000        32.000000000000000        0.0000000000000000     
   0.0000000000000000        31.500000000000000        0.0000000000000000     
   0.0000000000000000        31.000000000000000        0.0000000000000000     
   0.0000000000000000        30.500000000000000        0.0000000000000000     
   0.0000000000000000        30.000000000000000        0.0000000000000000     
   0.0000000000000000        29.500000000000000        0.0000000000000000     
   0.0000000000000000        29.000000000000000        0.0000000000000000     
   0.0000000000000000        28.500000000000000        0.0000000000000000     
   0.0000000000000000        28.000000000000000        0.0000000000000000     
   0.0000000000000000        27.500000000000000        0.0000000000000000     
   0.0000000000000000        27.000000000000000        0.0000000000000000     
   0.0000000000000000        26.500000000000000        0.0000000000000000     
   0.0000000000000000        26.000000000000000        0.0000000000000000     
[...]
 CELL_DATA        1368
 SCALARS T double
 LOOKUP_TABLE default
   20.799122563630736     
   24.958184750401962     
   1676.3550898960007     
   44.098413117084107     
   20.000000533967313     
   21.590194961235866     
   1279.4593488315556     
   21.463205668465303     
   20.099755595616710     
   21.216994741427349     
   20.157476298607179     
   38.056171174531180     
   21.152882137663731     
   46.314098029711069     
   39.329965828365530     
   1212.4007022133960     
   1677.5058820057309     
   20.329931983628342     
   20.298117307948118     
   22.447637232210063     
   20.246176959498321     
   20.015637575814416     
   1737.1447112659928     
   20.026041507200112     
   20.681584646886513     
   24.905510637275132     
   20.225035701830265     
   21.860489023670453     
   20.912949309546978     
   20.116342974602748     
   22.415961266684636     
   20.000000963711599     
   24.326500983971687     
   25.312178537957593     
   25.212945802677378     
   20.000000812131113     
   20.520800757139877     
   20.057541643549779     
   20.182967508376962     
   20.051347783310121     
   20.037084211964601     
   21.127814351524734     
   20.041530817502693     
   45.076191091501123     
   20.391386407823671     
   439.71956834436861     
   431.93165722101162     
   20.972370513627691     
   21.260493485296898     
   697.39766170804444     
   702.12084307425152     
   20.131362901377795     
   20.519876671999786     
   20.000000762005680     
   1708.7238088596448     
   20.000000661730912     
   20.000001853600619     
   20.014423981584219     
   20.008076679643530     
   20.018790287123739     
   20.000002394341625     
   43.502122733266610     
   20.030286337220964     
   20.000004742545478     
   22.111969854117376     
   22.654209180763079     
   20.092990114560877     
   22.550074339008507     
   20.187084339794314     
   20.248942161801843     
   20.000001528657521     
   1677.0501515377791     
   20.000002928208950     
   20.224435002211695     
   20.068705854667169     
   20.095131857253747     
   20.000007007787374     
   20.000017496663858     
   20.000001241023469     
   415.66132951717594     
   20.021342266554566     
   20.007289936441474     
   254.42159101085207     
   20.004241747951795     
   158.25379815944396     
   20.442002612722494     
   20.574812182377549     
   411.74720775331735     
   20.011928804835790     
   861.33603085277741     
   20.030186046237002     
   20.041713228370316     
   64.835475828138414     
   20.000061556289424     
   805.17559961583470     
   20.001764582065213     
   44.455841621763682     
   20.000025382363230     
   20.002111601983231     
   20.000009028660344     
   252.70094804125719     
   20.000005798352891     
   217.85708643541358     
   221.15085236388794     
   20.037237119001968     
   20.010040758694910     
   20.000001206967461     
   20.090890741089048     
   20.000001006370987     
   20.000010797328081     
   28.241453391840516     
   525.48764235082808     
   27.272031578427463     
   20.000987060735756     
   20.000003797717362     
   20.000000536100320     
   137.56569951368235     
   23.598433510246750     
   139.38752807664562     
   20.000429614827880     
   20.000005839918956     
   20.000885490826935     
   20.007193050528070     
   157.21916281134023     
   21.717393205743583     
   313.22492842327648     
   20.078068543452794     
   20.103250349593033     
   20.005290969418120     
   20.566721732911617     
   20.000001538550077     
   20.001225407106332     
   536.09938582557686     
   20.783068704712271     
   20.000021195084283     
   20.000088275673228     
   20.340882917969253     
   88.912618921500197     
   1321.1279932229154     
   90.091607721914897     
   1008.8465473754591     
   483.87001566326120     
   194.43426045285855     
   20.001421133307989     
   20.003720486199757     
   20.000330771823421     
   506.74163322438034     
   20.002607213040680     
   20.000014119861913     
   20.000021383376431     
   20.000420364296762     
   317.29866703862785     
   20.003586918230539     
   59.348153070356055     
   59.906416916783179     
   20.000032396601100     
   20.000286760288493     
   121.46113385763506     
   20.005724730912640     
   20.000073686234327     
   20.000038588460981     
   20.000003705188696     
   39.869333615265354     
   64.429750631522396     
   20.014080113233565     
   22.030881383791900     
   20.000074563112229     
   20.000000494760656     
   247.35920385005730     
   196.87034628643224     
   20.000702522936859     
   20.000182131384854     
   20.000049794724958     
   44.246851804212518     
   51.992654564121338     
   20.000221421089922     
   1013.6996587168176     
   20.434647935132926     
   122.59581823815093     
   20.000111669487001     
   165.80763957965632     
   157.36520186068674     
   37.153447271965646     
   20.000131326981645     
   34.410565567708169     
   20.000419270140224     
   20.005836897022448     
   20.008248682100369     
   58.748903106557734     
   20.000001164134627     
   262.75408428459582     
   20.077260338333609     
   26.106114661288256     
   26.093780964376268     
   29.555788808929698     
   20.000000604608477     
   581.96227809569132     
   20.000474057602055     
   20.000001035373483     
   20.000167072414857     
   27.119113821246291     
   20.000248171344605     
   105.94771940165262     
   20.002914427979469     
   20.004133317239834     
   20.000915208544800     
   100.73521051396708     
   23.773542764906107     
   20.000195186101376     
   20.000001237922682     
   20.000289844078175     
   20.000002214649300     
   24.787751337702346     
   20.000000529441262     
   20.001071064633503     
   20.000122527278680     
   20.001903401378691     
   20.002980930729279     
   20.102785072560877     
   20.000364885322416     
   23.520915157429968     
   20.000001416904901     
   20.005175583387555     
   56.527654442277608     
   20.002036448427383     
   52.499902960080810     
   20.002229964305656     
   20.000082168088728     
   20.000000811578673     
   20.000098282886682     
   20.000580706232000     
   20.000001819424526     
   21.679584835709022     
   20.000013770642742     
   22.320016950217386     
   20.000065934023738     
   20.005532739204117     
   20.000000898949200     
   20.765496842100077     
   20.006432825477344     
   32.729720686446733     
   37.387575657729862     
   329.09911021983493     
   20.857827607312366     
   53.639096488553932     
   69.513659156938871     
   1434.8460424391744     
   66.412519782586884     
   20.332917743027121     
   20.000054787155790     
   20.000023967127781     
   20.015387715014761     
   20.000625708403284     
   21.078411941974384     
   1516.5878131779173     
   20.000018985434568     
   20.000043874527893     
   20.000145614986167     
   20.017741525007576     
   20.000733134463850     
   20.000002029078210     
   742.40488403281302     
   573.23726210147402     
   20.040846747873747     
   20.008417198311633     
   20.001835326759387     
   20.480048019332045     
   20.000002128608102     
   20.046746272276643     
   1460.1377291230542     
   29.810185408635288     
   20.166538253912183     
   20.000500058472426     
   20.000612255383416     
   20.000418070784473     
   20.000002134594983     
   20.103640293768319     
   20.000001940336396     
   1382.8289101680216     
   1189.0167159573332     
   20.000000401688634     
   1253.0016424527439     
   20.000002313265806     
   20.117727947286550     
   1367.6630943681510     
   20.007459849362640     
   31.083615373161894     
   868.51603276711717     
   1390.5331653415287     
   20.000007267900635     
   24.936856041981326     
   20.000000805934512     
   20.000036442399704     
   20.000463789353184     
   20.000682498357381     
   20.000015718814598     
   20.000001149299393     
   20.000008024483552     
   20.000000946699117     
   921.65566675240382     
   22.394453503277031     
   20.000028882506260     
   659.46539696835612     
   20.000000830184668     
   20.000012350911838     
   21.114165854440767     
   20.496212887054192     
   20.000000516697597     
   20.000000743528737     
   1177.4440287634488     
   20.000001499954742     
   1290.0394111169232     
   1071.0664949808431     
   20.000609786412102     
   20.000484714400994     
   1479.5291172573895     
   30.527239819859133     
   333.41490963912975     
   20.027054268723841     
   20.000001104036748     
   20.000000617089714     
   20.000002411715229     
   780.60443151958270     
   20.000225305860170     
   20.000001587497906     
   20.000048875189336     
   20.000193701109858     
   20.003897099801048     
   1319.2094078070213     
   763.99212644985346     
   20.000000962860987     
   20.000001953026242     
   49.916008792523748     
   1200.7217364247706     
   20.000213945498878     
   20.000003339352521     
   1213.2083301131636     
   1290.0524372827783     
   20.004504798755399     
   20.001325193350397     
   1007.8234314617807     
   20.000001659879057     
   20.000007517188255     
   20.000004318204045     
   20.000004859093941     
   912.75887735459526     
   20.001543849996523     
   20.000006659648637     
   20.000008586918085     
   30.159594923175508     
   27.429066564063682     
   20.000003632566631     
   20.000001296690147     
   20.005983500353135     
   20.000003045543959     
   1141.4283640138058     
   20.000005599448613     
   1038.9346903770233     
   20.000003040703362     
   860.34260771553852     
   20.000001249627175     
   975.22718114491136     
   778.63158114504699     
   1032.7704946697615     
   1207.8787459314378     
   1036.4445208140874     
   20.000002828334338     
   20.000001376365212     
   20.000002349242230     
   872.33391554030698     
   840.00094660263824     
   762.38963268682062     
   734.81735730551782     
   1119.1573038980896     
   663.22136191700895     
   20.000195213606894     
   20.000003143887280     
   20.000011201555253     
   20.000010311047429     
   1232.7076271540618     
   889.11621695585256     
   892.69169247370405     
   966.27043224044883     
   629.52617088010720     
   720.81860613169340     
   20.000011402841960     
   20.000009052134956     
   20.000030454302699     
   561.90670754514599     
   831.45710794638808     
   559.70484435767389     
   20.000013153365778     
   20.000045553409592     
   20.000060359446362     
   628.75735022654123     
   470.90622215872526     
   764.87380103656938     
   20.000026636407114     
   611.96578381768722     
   650.68838407246085     
   20.000011494707206     
   20.000039618225454     
   659.98238626936347     
   20.000090125677886     
   20.000039995363057     
   537.34415741088105     
   20.000068332982757     
   20.000040736359821     
   20.000032634475776     
   20.000103111998875     
   564.23142903290625     
   457.25038893365854     
   480.50488578096218     
   20.000013213158361     
   388.42843433750596     
   409.83544166187085     
   20.000206759705289     
   20.000251840080434     
   20.000017628715916     
   20.000246427080796     
   713.55142353178508     
   20.000538131045595     
   20.000639844678375     
   20.000789067162543     
   20.000291156534885     
   299.23202217202851     
   20.000451318297014     
   20.000370351134944     
   403.34290667904264     
   20.000798102241959     
   20.000544456251987     
   20.000020010762238     
   20.001020591488700     
   20.000886121389815     
   20.000686737169726     
   20.001654542908469     
   20.000661359521949     
   20.003402678532648     
   20.003998185277908     
   20.009813020329585     
   20.006927442321945     
   20.005852005466735     
   20.008264603179075     
   20.013565596004518     
   20.036250912180158     
   20.016241164683230     
   20.013697600916842     
   20.026636938249798     
   20.019152217970632     
   20.092601938107599     
   20.043057242348560     
   20.036596039003623     
   20.069085985989815     
   20.050399258890728     
   20.049325407057459     
   20.022588738050924     
   20.067001582303959     
   20.053375519141678     
   20.039550203955336     
   20.036074483780247     
   20.225502613506851     
   20.109126093830259     
   20.093461572736057     
   20.171343912549062     
   20.126798152454334     
   20.058992315662724     
   391.41064763544063     
   20.527044419405833     
   20.264693088898920     
   20.228033997723472     
   20.404988225736687     
   20.303958449726061     
   20.147315507256817     
   20.381119459647604     
   20.301356648501621     
   20.212117295794535     
   20.282106519396304     
   21.179208257833125     
   20.613631328455725     
   20.532725293055329     
   20.918959142670051     
   20.701330530270504     
   20.352028709323939     
   20.230395308276389     
   22.530494043699726     
   21.362616450235219     
   21.191569928570324     
   21.998212325293920     
   21.546715796178177     
   20.804187798543992     
   21.761644339034035     
   21.434946649701420     
   21.049746183043077     
   21.357687004027259     
   25.213895537941312     
   22.902485755215054     
   22.556087739203200     
   24.173957531494910     
   23.267668498482383     
   21.760884728047611     
   241.74378205176447     
   276.92824303066044     
   252.45993269458435     
   21.124372381355652     
   26.627595559001168     
   135.42179214445886     
   293.49247874763512     
   147.55770339108710     
   133.67012289352746     
   151.00279092914150     
   30.331650749346956     
   274.11680018807118     
   242.29319533458550     
   294.22289308998307     
   25.938579352783659     
   25.265043211019375     
   75.186897751325972     
   236.37925166540182     
   126.64047144819510     
   70.793262839128474     
   151.00428321842347     
   23.700507556196964     
   114.57304421655851     
   238.82099333657220     
   27.489862412779956     
   28.383226751011662     
   326.91863398319197     
   203.01154098931565     
   182.41731241077230     
   128.75427274384131     
   43.292000624105071     
   108.71848299206995     
   36.028290897094962     
   34.649835530367419     
   82.948064988381930     
   44.586143933936789     
   333.39034351681312     
   31.679888225838351     
   30.427231494049177     
   250.44497725216240     
   35.909337958676531     
   240.70739423510605     
   85.285036884445219     
   157.98545198614292     
   43.102483060796864     
   175.74036131944609     
   175.72729246475291     
   172.35518772886132     
   235.09279228057446     
   32.909091548406487     
   156.39469969412733     
   99.406463163997003     
   98.880108575408926     
   298.32235997539414     
   95.760666854800846     
   331.43143436401448     
   64.042518132879493     
   71.793559602370848     
   82.291476254141998     
   214.06263451863907     
   344.91326799751852     
   48.462174273515132     
   185.89776915150935     
   271.75899056136427     
   20.001420729384016     
   75.123502681738884     
   80.445251226553893     
   317.41245488118841     
   20.003673257148925     
   20.001825123613141     
   64.370997187949101     
   34.522819346684862     
   86.791856754598854     
   136.11558721990312     
   442.38021620704058     
   320.13720035987717     
   234.26937910495099     
   266.24909269558532     
   146.87882666411406     
   95.194882045426937     
   63.635093689145869     
   44.723864870883276     
   33.627111243327398     
   27.213947692785389     
   23.718735884843014     
   21.834044782247620     
   20.873989623290978     
   20.397980655782376     
   20.173812949646418     
   20.071653157751808     
   20.029127792197841     
   20.011033569802656     
   20.004064824768328     
   20.002878668361078     
   20.002022998112370     
   20.002595125896310     
   20.000987709611749     
   20.001275547295442     
   20.000325826739729     
   20.000101787607452     
   20.000030294804230     
   20.000008638964065     
   20.001676878803742     
   20.000007404300774     
   20.000026886906813     
   20.000092975017200     
   20.000307451542035     
   20.000966594998200     
   20.002019031001900     
   20.002888124261354     
   20.002412680148467     
   20.004122734408558     
   20.003454614341162     
   20.011654036756788     
   20.031361898700386     
   20.080668282400261     
   20.198485846599169     
   20.467059532207408     
   21.051805388438172     
   22.271080509119280     
   24.707556180033940     
   29.382849502106932     
   38.024213220103420     
   53.485686378298546     
   80.405734474136054     
   93.064398307946334     
   86.023318584920148     
   108.27689512948032     
   125.99493395850212     
   201.61527766377174     
   324.70364403862203     
   522.06490543868665     
   93.240338700140200     
   205.79348811526819     
   217.07744665064254     
   150.56662247599289     
   20.001160509805494     
   108.27475944957393     
   282.32185491536325     
   61.995722579487165     
   116.63186331728193     
   47.504284975267097     
   20.001395895398847     
   53.826287935106883     
   100.32163574196957     
   254.88517388809700     
   65.251556301315901     
   349.33033913141173     
   44.254043564566707     
   71.553235307104174     
   158.89378826878004     
   115.85182231939481     
   57.690247901893329     
   110.53401872382940     
   48.860801545814212     
   50.664976421532309     
   45.136824909329391     
   62.319055921801223     
   54.827068300745950     
   129.36312375178355     
   282.25810158456250     
   171.23871251837488     
   115.91184149632574     
   49.799466929043909     
   35.563270795553315     
   61.063666355719107     
   110.78184556743088     
   73.846648253057552     
   56.430029888233150     
   69.992598300243486     
   39.717231666305082     
   95.295650476050085     
   42.394312014971270     
   43.070693135332938     
   36.428404913762598     
   40.342568602158721     
   38.910192504928659     
   147.65059110701560     
   43.276142275609722     
   149.94674943381924     
   32.877278947846193     
   38.268532236075508     
   94.307808712946965     
   35.248245568987450     
   26.405509670029993     
   33.027663953456525     
   95.915088337830056     
   86.416833150070559     
   100.00813493142374     
   32.197673655234027     
   28.038080802317136     
   183.63756584977821     
   26.836240727231477     
   214.97007427670437     
   30.630687517765352     
   29.921004678068879     
   23.176535967180978     
   26.854327932942166     
   28.513911440608293     
   206.05427824798818     
   26.436938161733849     
   27.906087947977422     
   26.592866013224992     
   26.817809491788161     
   23.418770423206450     
   26.273326462832529     
   23.993311641411996     
   25.434593070137101     
   24.997581110444528     
   24.312984741918083     
   21.498830076240985     
   23.254980869063662     
   23.949260362224265     
   23.386939436309884     
   23.096875172942653     
   21.642147492781209     
   21.914989455802008     
   22.662856303752370     
   22.433545658818669     
   22.082239844467363     
   20.690976904580136     
   21.543147325054704     
   21.895130285473499     
   21.611673093767884     
   21.465208030318383     
   20.753326392890383     
   20.893455304785203     
   21.251603656035570     
   21.136072409635375     
   20.966922685194458     
   20.301999576928161     
   20.702676160843122     
   20.873929778734905     
   20.739386353939540     
   20.667404553573153     
   20.335986758519386     
   20.395745331683848     
   20.565634007011216     