# vtk DataFile Version 2.0
 temperature
 ASCII
 DATASET UNSTRUCTURED_GRID
 POINTS         773  double
   0.0000000000000000        0.0000000000000000        0.0000000000000000     
   3.5000000000000000        0.0000000000000000        0.0000000000000000     
   3.5000000000000000        40.000000000000000        0.0000000000000000     
   0.0000000000000000        40.000000000000000        0.0000000000000000     
  0.43750000000000000        0.0000000000000000        0.0000000000000000     
  0.87500000000000000        0.0000000000000000        0.0000000000000000     
   1.3125000000000000        0.0000000000000000        0.0000000000000000     
   1.7500000000000000        0.0000000000000000        0.0000000000000000     
   2.1875000000000000        0.0000000000000000        0.0000000000000000     
   2.6250000000000000        0.0000000000000000        0.0000000000000000     
   3.0625000000000000        0.0000000000000000        0.0000000000000000     
   3.5000000000000000       0.50000000000000000        0.0000000000000000     
   3.5000000000000000        1.0000000000000000        0.0000000000000000     
   3.5000000000000000        1.5000000000000000        0.0000000000000000     
   3.5000000000000000        2.0000000000000000        0.0000000000000000     
   3.5000000000000000        2.5000000000000000        0.0000000000000000     
   3.5000000000000000        3.0000000000000000        0.0000000000000000     
   3.5000000000000000        3.5000000000000000        0.0000000000000000     
   3.5000000000000000        4.0000000000000000        0.0000000000000000     
   3.5000000000000000        4.5000000000000000        0.0000000000000000     
   3.5000000000000000        5.0000000000000000        0.0000000000000000     
   3.5000000000000000        5.5000000000000000        0.0000000000000000     
   3.5000000000000000        6.0000000000000000        0.0000000000000000     
   3.5000000000000000        6.5000000000000000        0.0000000000000000     
   3.5000000000000000        7.0000000000000000        0.0000000000000000     
   3.5000000000000000        7.5000000000000000        0.0000000000000000     
   3.5000000000000000        8.0000000000000000        0.0000000000000000     
   3.5000000000000000        8.5000000000000000        0.0000000000000000     
   3.5000000000000000        9.0000000000000000        0.0000000000000000     
   3.5000000000000000        9.5000000000000000        0.0000000000000000     
   3.5000000000000000        10.000000000000000        0.0000000000000000     
   3.5000000000000000        10.500000000000000        0.0000000000000000     
   3.5000000000000000        11.000000000000000        0.0000000000000000     
   3.5000000000000000        11.500000000000000        0.0000000000000000     
   3.5000000000000000        12.000000000000000        0.0000000000000000     
   3.5000000000000000        12.500000000000000        0.0000000000000000     
   3.5000000000000000        13.000000000000000        0.0000000000000000     
   3.5000000000000000        13.500000000000000        0.0000000000000000     
   3.5000000000000000        14.000000000000000        0.0000000000000000     
   3.5000000000000000        14.500000000000000        0.0000000000000000     
   3.5000000000000000        15.000000000000000        0.0000000000000000     
   3.5000000000000000        15.500000000000000        0.0000000000000000     
   3.5000000000000000        16.000000000000000        0.0000000000000000     
   3.5000000000000000        16.500000000000000        0.0000000000000000     
   3.5000000000000000        17.000000000000000        0.0000000000000000     
   3.5000000000000000        17.500000000000000        0.0000000000000000     
   3.5000000000000000        18.000000000000000        0.0000000000000000     
   3.5000000000000000        18.500000000000000        0.0000000000000000     
   3.5000000000000000        19.000000000000000        0.0000000000000000     
   3.5000000000000000        19.500000000000000        0.0000000000000000     
   3.5000000000000000        20.000000000000000        0.0000000000000000     
   3.5000000000000000        20.500000000000000        0.0000000000000000     
   3.5000000000000000        21.000000000000000        0.0000000000000000     
   3.5000000000000000        21.500000000000000        0.0000000000000000     
   3.5000000000000000        22.000000000000000        0.0000000000000000     
   3.5000000000000000        22.500000000000000        0.0000000000000000     
   3.5000000000000000        23.000000000000000        0.0000000000000000     
   3.5000000000000000        23.500000000000000        0.0000000000000000     
   3.5000000000000000        24.000000000000000        0.0000000000000000     
   3.5000000000000000        24.500000000000000        0.0000000000000000     
   3.5000000000000000        25.000000000000000        0.0000000000000000     
   3.5000000000000000        25.500000000000000        0.0000000000000000     
   3.5000000000000000        26.000000000000000        0.0000000000000000     
   3.5000000000000000        26.500000000000000        0.0000000000000000     
   3.5000000000000000        27.000000000000000        0.0000000000000000     
   3.5000000000000000        27.500000000000000        0.0000000000000000     
   3.5000000000000000        28.000000000000000        0.0000000000000000     
   3.5000000000000000        28.500000000000000        0.0000000000000000     
   3.5000000000000000        29.000000000000000        0.0000000000000000     
   3.5000000000000000        29.500000000000000        0.0000000000000000     
   3.5000000000000000        30.000000000000000        0.0000000000000000     
   3.5000000000000000        30.500000000000000        0.0000000000000000     
   3.5000000000000000        31.000000000000000        0.0000000000000000     
   3.5000000000000000        31.500000000000000        0.0000000000000000     
   3.5000000000000000        32.000000000000000        0.0000000000000000     
   3.5000000000000000        32.500000000000000        0.0000000000000000     
   3.5000000000000000        33.000000000000000        0.0000000000000000     
   3.5000000000000000        33.500000000000000        0.0000000000000000     
   3.5000000000000000        34.000000000000000        0.0000000000000000     
   3.5000000000000000        34.500000000000000        0.0000000000000000     
   3.5000000000000000        35.000000000000000        0.0000000000000000     
   3.5000000000000000        35.500000000000000        0.0000000000000000     
   3.5000000000000000        36.000000000000000        0.0000000000000000     
   3.5000000000000000        36.500000000000000        0.0000000000000000     
   3.5000000000000000        37.000000000000000        0.0000000000000000     
   3.5000000000000000        37.500000000000000        0.0000000000000000     
   3.5000000000000000        38.000000000000000        0.0000000000000000     
   3.5000000000000000        38.500000000000000        0.0000000000000000     
   3.5000000000000000        39.000000000000000        0.0000000000000000     
   3.5000000000000000        39.500000000000000        0.0000000000000000     
   3.0625000000000000        40.000000000000000        0.0000000000000000     
   2.6250000000000000        40.000000000000000        0.0000000000000000     
   2.1875000000000000        40.000000000000000        0.0000000000000000     
   1.7500000000000000        40.000000000000000        0.0000000000000000     
   1.3125000000000000        40.000000000000000        0.0000000000000000     
  0.87500000000000000        40.000000000000000        0.0000000000000000     
  0.43750000000000000        40.000000000000000        0.0000000000000000     
   0.0000000000000000        39.500000000000000        0.0000000000000000     
   0.0000000000000000        39.000000000000000        0.0000000000000000     
   0.0000000000000000        38.500000000000000        0.0000000000000000     
   0.0000000000000000        38.000000000000000        0.0000000000000000     
   0.0000000000000000        37.500000000000000        0.0000000000000000     
   0.0000000000000000        37.000000000000000        0.0000000000000000     
   0.0000000000000000        36.500000000000000        0.0000000000000000     
   0.0000000000000000        36.000000000000000        0.0000000000000000     
   0.0000000000000000        35.500000000000000        0.0000000000000000     
   0.0000000000000000        35.000000000000000        0.0000000000000000     
   0.0000000000000000        34.500000000000000        0.0000000000000000     
   0.0000000000000000        34.000000000000000        0.0000000000000000     
   0.0000000000000000        33.500000000000000        0.0000000000000000     
   0.0000000000000000        33.000000000000000        0.0000000000000000     
   0.0000000000000000        32.500000000000000        0.0000000000000000     
   0.0000000000000000        32.000000000000000        0.0000000000000000     
   0.0000000000000000        31.500000000000000        0.0000000000000000     
   0.0000000000000000        31.000000000000000        0.0000000000000000     
   0.0000000000000000        30.500000000000000        0.0000000000000000     
   0.0000000000000000        30.000000000000000        0.0000000000000000     
   0.0000000000000000        29.500000000000000        0.0000000000000000     
   0.0000000000000000        29.000000000000000        0.0000000000000000     
   0.0000000000000000        28.500000000000000        0.0000000000000000     
   0.0000000000000000        28.000000000000000        0.0000000000000000     
   0.0000000000000000        27.500000000000000        0.0000000000000000     
   0.0000000000000000        27.000000000000000        0.0000000000000000     
   0.0000000000000000        26.500000000000000        0.0000000000000000     
   0.0000000000000000        26.000000000000000        0.0000000000000000     
[...]
 CELL_DATA        1368
 SCALARS T double
 LOOKUP_TABLE default
   21.173183801929511     
   26.369287444078864     
   1677.6924997825427     
   46.880794139908303     
   20.000004115195306     
   22.218399253483121     
   1280.6347859360583     
   22.066736369799692     
   20.179280925421249     
   21.739416924579498     
   20.271362596914091     
   40.779965709661226     
   21.689066538319565     
   49.371567641825152     
   42.122460038266262     
   1213.6033518455774     
   1678.8755342173374     
   20.535382223654882     
   20.491448489031004     
   23.344626889394796     
   20.411489326799590     
   20.034243354660560     
   1738.1969218523334     
   20.054301732031988     
   21.009170006393372     
   26.230956021942315     
   20.387572248458969     
   22.569502898721009     
   21.340170073192468     
   20.206886588244338     
   23.260370881004178     
   20.000007020149674     
   25.608062893211020     
   26.768621997270841     
   26.575638873955164     
   20.000006022938059     
   20.824158818730229     
   20.111885710468414     
   20.315060005365009     
   20.101660186684377     
   20.077300709270283     
   21.632640871397712     
   20.083591339113681     
   48.282987891750118     
   20.627373388358905     
   446.94554709046201     
   439.05092709822190     
   21.442853864411958     
   21.824359579385632     
   699.97802293873076     
   704.97040850913834     
   20.229004534881195     
   20.810481541845430     
   20.000005670626148     
   1709.6111657659424     
   20.000004988035894     
   20.000012492930313     
   20.032780402335959     
   20.019010041762630     
   20.040591983739240     
   20.000015668788070     
   46.480761819741751     
   20.063107141481744     
   20.000028666645427     
   22.915470835573505     
   23.590674110480347     
   20.175579482121581     
   23.418428762416255     
   20.327085569488094     
   20.422600141444406     
   20.000010553654217     
   1678.0970730752717     
   20.000018684725255     
   20.380827710193863     
   20.131746263587804     
   20.176367635404254     
   20.000040298755433     
   20.000090600364082     
   20.000008799840213     
   423.13830275660717     
   20.045125765925469     
   20.017486997507710     
   262.20858020788182     
   20.010984295263857     
   165.59753056228945     
   20.708344472186660     
   20.897741223748362     
   419.17966324469774     
   20.027536433870871     
   863.59006738576966     
   20.064053086689732     
   20.085443180838176     
   70.003757195334302     
   20.000274912521647     
   807.39014235099910     
   20.005159733264389     
   48.370361457674747     
   20.000125377858279     
   20.005914694106849     
   20.000050449194390     
   260.42953940397501     
   20.000034142530360     
   222.37209242598277     
   225.94497784613915     
   20.076344341441860     
   20.023237747117275     
   20.000008556589879     
   20.165734238114165     
   20.000007306241994     
   20.000058998148656     
   30.012332484529249     
   531.83189093018279     
   29.243692406313350     
   20.003070139871646     
   20.000023560279178     
   20.000004121690235     
   142.09921329503211     
   24.859950935242139     
   144.15681316798540     
   20.001525293853117     
   20.000034418955664     
   20.002754594502591     
   20.017963446892622     
   164.50610018925914     
   22.482180799846105     
   320.72992738600635     
   20.149587520677908     
   20.192102760540404     
   20.013449088060060     
   20.873567374208594     
   20.000010631922628     
   20.003736053573856     
   542.59983507844618     
   21.220956903629343     
   20.000107065337666     
   20.000376701031389     
   20.577926566670133     
   93.068234186701048     
   1322.4911741355145     
   94.458921675366668     
   1010.4970720176919     
   487.38113406713546     
   201.83475630110252     
   20.004238208728612     
   20.009835747144610     
   20.001145976109761     
   510.33086631119369     
   20.007172388282832     
   20.000074952068992     
   20.000108086127664     
   20.001491647959913     
   324.91917244184475     
   20.009682149493024     
   62.865201780986254     
   63.563770088885754     
   20.000155689050128     
   20.000993257505062     
   128.14380147942427     
   20.013988625197740     
   20.000321534092183     
   20.000181454251230     
   20.000023010523403     
   42.280220476539128     
   69.552701771739308     
   20.031375594272674     
   22.768441463899233     
   20.000325458332220     
   20.000003820733387     
   251.81797456133597     
   204.38685130324441     
   20.002229757048877     
   20.000691796556463     
   20.000227876868340     
   48.127485077824417     
   56.364024103385184     
   20.000783269505916     
   1015.5256499079054     
   20.685579482703201     
   129.37398415028645     
   20.000464223828306     
   170.60898100819293     
   161.96876756867957     
   40.357171111987171     
   20.000535071888674     
   36.877713233306096     
   20.001422534105959     
   20.014848988774975     
   20.020192607854639     
   62.866004631183500     
   20.000008257899850     
   267.40577103730163     
   20.145446297351345     
   27.541775477847441     
   27.541580606978545     
   31.814946156274502     
   20.000004395685210     
   585.27665922709434     
   20.001535717653745     
   20.000007324667965     
   20.000662669751897     
   29.049446944427103     
   20.000940039254093     
   110.48084339722162     
   20.008016708242618     
   20.010930544067353     
   20.002968443150802     
   105.05768495324976     
   24.904428918859303     
   20.000759369523550     
   20.000008543618545     
   20.001077021996721     
   20.000014531085625     
   26.268337188459800     
   20.000003852258125     
   20.003405464649482     
   20.000487229860791     
   20.005677172634282     
   20.008027874829875     
   20.188416971472616     
   20.001321629133550     
   24.755385449266281     
   20.000009801973416     
   20.012895279024558     
   60.542703723578434     
   20.005832315381497     
   56.944410015346591     
   20.006519620226751     
   20.000342326888099     
   20.000005739052842     
   20.000399020750734     
   20.001929364519736     
   20.000012244657718     
   22.428037217867114     
   20.000073182265673     
   23.239340456334507     
   20.000280469560384     
   20.014620489592993     
   20.000006356350415     
   21.193874629372871     
   20.016681503631474     
   35.032416636215075     
   40.641504160778105     
   334.50029136305255     
   21.274938821734352     
   57.147678856436052     
   73.451260451607055     
   1436.4399652233574     
   70.150633765557231     
   20.564474398643490     
   20.000239316399245     
   20.000115378983917     
   20.036267414022902     
   20.002120826341574     
   21.618287792948067     
   1518.4344644281757     
   20.000093456864150     
   20.000195710741309     
   20.000564791998585     
   20.041084518731630     
   20.002434746536164     
   20.000012572745419     
   746.59545564115956     
   576.23315564666109     
   20.086478524978265     
   20.020206149478391     
   20.005253445294798     
   20.780166749459369     
   20.000013958750657     
   20.097351258581813     
   1461.8649664215388     
   32.133115675041090     
   20.291527306069622     
   20.001735469269633     
   20.001943098061211     
   20.001386713730056     
   20.000013610109708     
   20.198498158071168     
   20.000012364932306     
   1385.5872013335668     
   1189.7115174627281     
   20.000002987370120     
   1255.4592708433156     
   20.000014337366839     
   20.222056189647958     
   1369.8194893222094     
   20.018252451400169     
   33.002057617115739     
   871.42957186327624     
   1392.7982757587440     
   20.000039592713591     
   26.464252869751952     
   20.000005993101531     
   20.000166965270761     
   20.001573532196023     
   20.002214623860077     
   20.000079498308338     
   20.000007931491538     
   20.000043719446857     
   20.000006528712365     
   924.83661854135880     
   23.343831942820188     
   20.000135287489545     
   663.76115664958968     
   20.000005724238054     
   20.000063925316837     
   21.672219271234962     
   20.806586822351608     
   20.000003915862070     
   20.000005402231292     
   1180.3371837102834     
   20.000009544051014     
   1291.9392199443218     
   1074.2314898683021     
   20.001980598656484     
   20.001606257600002     
   1481.8558961144242     
   32.400525202517088     
   338.61313808129694     
   20.057442465572294     
   20.000007804988222     
   20.000004367150229     
   20.000015794846732     
   784.34650891159936     
   20.000815897768248     
   20.000010678357693     
   20.000223768535562     
   20.000718113763003     
   20.010713596136675     
   1321.8647582378201     
   765.57928290286793     
   20.000006460428747     
   20.000013122229209     
   53.281662243937447     
   1204.3433165201091     
   20.000793655481285     
   20.000020180633459     
   1215.5165579639529     
   1293.2665492048134     
   20.012159714396613     
   20.004119669544064     
   1011.4246256926982     
   20.000011180708100     
   20.000039869379350     
   20.000025446058689     
   20.000027134553424     
   916.59068720775952     
   20.004707218271253     
   20.000037282718957     
   20.000045545082042     
   32.307370504568794     
   29.050335684938954     
   20.000020800094056     
   20.000008479028534     
   20.014910248111860     
   20.000019404477790     
   1144.8599946783308     
   20.000030459449402     
   1042.6847020194880     
   20.000018367681392     
   864.59945270908963     
   20.000008394689061     
   979.42923138230196     
   783.07489737843514     
   1035.7414177646235     
   1210.8909966368533     
   1040.8736103450995     
   20.000018055213907     
   20.000009247335623     
   20.000014168397730     
   875.92910841423395     
   844.85468539550004     
   767.45619087256523     
   739.66365396391700     
   1123.1998470983403     
   668.20066297831750     
   20.000706967206526     
   20.000018492052877     
   20.000057976651927     
   20.000054819856963     
   1234.4647137249717     
   894.29183321140681     
   897.14616720814638     
   971.07904808005685     
   634.21248270594481     
   726.23931544545178     
   20.000062097009504     
   20.000050645129516     
   20.000139140119817     
   568.74665719470534     
   836.95555670297199     
   566.46496964554763     
   20.000066324711653     
   20.000193596212362     
   20.000250574934043     
   634.10291865141528     
   476.04170261969421     
   770.68811916695859     
   20.000121692359755     
   618.59003584252696     
   656.27459086804390     
   20.000057969453600     
   20.000176710893005     
   666.33513245326242     
   20.000357094345159     
   20.000174228295990     
   543.12750457386119     
   20.000277017153888     
   20.000190934372647     
   20.000156943527287     
   20.000408586383362     
   569.66725486131202     
   463.42989064542843     
   486.31490704353126     
   20.000064945768521     
   394.89254041585446     
   415.97621155411122     
   20.000801443413344     
   20.000953698920970     
   20.000084560768602     
   20.000915430392197     
   719.65707472445740     
   20.001863586393892     
   20.002169427973275     
   20.002614423187115     
   20.001056850803344     
   303.60728218137211     
   20.001597912014827     
   20.001341055931768     
   410.05631417004190     
   20.002644705495342     
   20.001885604965352     
   20.000093679139002     
   20.003103022455786     
   20.002695034271738     
   20.002131595077568     
   20.005035199599885     
   20.002240380649049     
   20.009537628985807     
   20.010991316765491     
   20.024444831264425     
   20.017943578317773     
   20.015453990049846     
   20.020994761773281     
   20.032548794188688     
   20.078041975653971     
   20.038261907518766     
   20.032873995184236     
   20.059394147947721     
   20.044286884496788     
   20.180136865606833     
   20.091122455780855     
   20.078805655769646     
   20.138861642915586     
   20.104813309471147     
   20.095978078140373     
   20.051307764913656     
   20.126133654729614     
   20.102084114716284     
   20.078169122775932     
   20.072605556735141     
   20.399348598137394     
   20.208931923701968     
   20.181857762039719     
   20.312672904187725     
   20.238846133351828     
   20.120651192600221     
   398.56140283525446     
   20.855695496251798     
   20.461762945974954     
   20.403865612577803     
   20.676120213983900     
   20.522573017305422     
   20.273220084698220     
   20.600937519587294     
   20.482261242037978     
   20.354489899800143     
   20.458088458303433     
   21.768303456655818     
   20.982679651239856     
   20.865006653112918     
   21.413514542707510     
   21.107919478305593     
   20.596360288480874     
   20.378955743562194     
   23.531145957456875     
   22.018000986194117     
   21.787036418047887     
   22.853132943203121     
   22.262422492328831     
   21.253698935886643     
   22.401685077129105     
   21.978702935719465     
   21.500421961668490     
   21.894731945631094     
   26.822003987000922     
   24.005186324161333     
   23.567303142154291     
   25.573846868691721     
   24.459743137700727     
   22.545027584779859     
   247.97994155198921     
   284.17052638774771     
   258.41975152470502     
   21.585795660651470     
   28.504546842157826     
   141.14471974888448     
   300.54356580694594     
   154.36510266350933     
   140.21355035165837     
   157.03362700656996     
   32.771755651800632     
   279.50310523629781     
   249.72493312285403     
   300.10273077564591     
   27.693479509676383     
   26.889765784141929     
   79.910517383321775     
   243.61324673412184     
   133.19482976840806     
   75.124246137724299     
   158.00280498684185     
   24.995955986141105     
   120.83005866547539     
   243.99811560876304     
   29.515723835413048     
   30.549374422974466     
   334.07369629727879     
   210.17768900086142     
   189.35626377365600     
   135.01013953325830     
   46.668156499274843     
   113.79717264101008     
   39.169264625943683     
   37.531641896911999     
   88.011549191752792     
   47.975230551510073     
   339.42342368937204     
   34.315307984405663     
   32.891932995939705     
   257.54228525830399     
   38.891053370845846     
   247.49656059640984     
   90.894537855369379     
   163.85045385613344     
   46.276064916719235     
   182.38790005787101     
   181.86079673433494     
   179.37782592936179     
   240.64176288944117     
   35.695009987791323     
   163.17202184270116     
   105.78348316345101     
   104.83812146398074     
   304.85676755641686     
   100.45608431106477     
   338.07807827819886     
   68.047958694653559     
   76.525728244165890     
   87.639945114024542     
   221.12914249396110     
   351.86222453781869     
   52.363488277158631     
   192.42994739438927     
   275.21469650425911     
   20.004059024138321     
   80.160257817014454     
   85.980162222419523     
   321.08010735047793     
   20.009509369001524     
   20.005113103903021     
   69.222973877830583     
   37.502471831900557     
   92.167605191171049     
   142.31948356187522     
   445.07517232724888     
   323.39890468603568     
   237.92975829282145     
   270.12306880295000     
   150.71196815823095     
   98.879287266405726     
   66.887334916203656     
   47.396495106988120     
   35.685993751427517     
   28.689806132549609     
   24.723059176667544     
   22.474093785240733     
   21.262206233818262     
   20.620013108686781     
   20.294138767060513     
   20.132798443435448     
   20.059494050340263     
   20.025029023622398     
   20.010316113279021     
   20.007594506461650     
   20.005550192958331     
   20.006984051097007     
   20.002939830477580     
   20.003722144453757     
   20.001102458195010     
   20.000393955123673     
   20.000135067807239     
   20.000044641380818     
   20.005102449592702     
   20.000042440930180     
   20.000132333705274     
   20.000395631955321     
   20.001137998895530     
   20.003134331739716     
   20.006016547181758     
   20.008261948820213     
   20.007042174546690     
   20.011326618565999     
   20.009679801163195     
   20.028487647621422     
   20.068708838027945     
   20.159512327153525     
   20.356774679416844     
   20.768763678669600     
   21.597110434439823     
   23.205210642291480     
   26.222002439998981     
   31.702303176450236     
   41.374335877135863     
   58.042135077988824     
   86.225072227762155     
   99.284331016361492     
   92.019252110426407     
   114.87723677302313     
   132.93455393195867     
   209.28512690187250     
   332.46899295841160     
   529.12035028438629     
   99.146964963730085     
   212.54639522694586     
   223.67255169597973     
   157.04871960537707     
   20.003683439577802     
   114.52256145855209     
   289.07955799459108     
   66.594152999741581     
   122.59480502155144     
   51.484755024310807     
   20.004339272543032     
   58.203574524730776     
   106.00144452388945     
   261.49279173169174     
   69.921818661998742     
   355.71991283505440     
   47.957908076454466     
   76.556028507762306     
   165.29298604007218     
   121.36708269977234     
   62.026953538758342     
   116.52047629215176     
   52.598214695502669     
   54.639993479431752     
   48.766231780409207     
   67.220025390325517     
   59.100522383797141     
   135.20954919888143     
   288.39546767366244     
   176.71443449091223     
   122.65425201255270     
   53.883118382123399     
   38.332688553730428     
   65.823099814542587     
   116.37573021503383     
   79.086018504457982     
   60.900267744181008     
   75.147504549712437     
   43.056747657332949     
   100.97883005360426     
   45.994558218032147     
   46.778575730929312     
   39.359305588068970     
   43.614036254259595     
   42.109065721921745     
   153.10027388845316     
   46.827732045970201     
   155.10419504466154     
   35.536340295503834     
   41.512013508920752     
   99.227025583757026     
   38.102655017242469     
   28.068393068641679     
   35.609158753084486     
   101.27551456660829     
   91.428284279652061     
   105.28305096763660     
   34.714315660581626     
   29.949133118331588     
   189.59245069322648     
   28.543746445968313     
   220.97179048372237     
   32.936613575394034     
   32.166828878973114     
   24.246085277999335     
   28.483158308277346     
   30.543025178649767     
   212.27033809967111     
   28.033970008965461     
   29.871470829437090     
   28.385154078333304     
   28.594043044910322     
   24.526809545455656     
   27.979348685513745     
   25.233020362601135     
   26.980344443797424     
   26.479843206085228     
   25.649077308619777     
   22.142394425538122     
   24.398955248789282     
   25.226614441133020     
   24.530553584044053     
   24.185438338463619     
   22.320300685753743     
   22.676597419164615     
   23.638711008050723     
   23.361139212461794     
   22.909114475399907     
   21.064250348099058     
   22.232985422195178     
   22.678620437216825     
   22.305654440540476     
   22.120355024615048     
   21.146559414712492     
   21.342340895592052     
   21.833586278950442     
   21.684425388810229     
   21.451854748142040     
   20.504923337019562     
   21.096948058264463     
   21.329313979209868     
   21.139611539557517     
   21.041927215543474     
   20.553628983828037     
   20.643800167694948     
   20.895075191570687     