# vtk DataFile Version 2.0
 temperature
 ASCII
 DATASET UNSTRUCTURED_GRID
 POINTS         773  double
   0.0000000000000000        0.0000000000000000        0.0000000000000000     
   3.5000000000000000        0.0000000000000000        0.0000000000000000     
   3.5000000000000000        40.000000000000000        0.0000000000000000     
   0.0000000000000000        40.000000000000000        0.0000000000000000     
  0.43750000000000000        0.0000000000000000        0.0000000000000000     
  0.87500000000000000        0.0000000000000000        0.0000000000000000     
   1.3125000000000000        0.0000000000000000        0.0000000000000000     
   1.7500000000000000        0.0000000000000000        0.0000000000000000     
   2.1875000000000000        0.0000000000000000        0.0000000000000000     
   2.6250000000000000        0.0000000000000000        0.0000000000000000     
   3.0625000000000000        0.0000000000000000        0.0000000000000000     
   3.5000000000000000       0.50000000000000000        0.0000000000000000     
   3.5000000000000000        1.0000000000000000        0.0000000000000000     
   3.5000000000000000        1.5000000000000000        0.0000000000000000     
   3.5000000000000000        2.0000000000000000        0.0000000000000000     
   3.5000000000000000        2.5000000000000000        0.0000000000000000     
   3.5000000000000000        3.0000000000000000        0.0000000000000000     
   3.5000000000000000        3.5000000000000000        0.0000000000000000     
   3.5000000000000000        4.0000000000000000        0.0000000000000000     
   3.5000000000000000        4.5000000000000000        0.0000000000000000     
   3.5000000000000000        5.0000000000000000        0.0000000000000000     
   3.5000000000000000        5.5000000000000000        0.0000000000000000     
   3.5000000000000000        6.0000000000000000        0.0000000000000000     
   3.5000000000000000        6.5000000000000000        0.0000000000000000     
   3.5000000000000000        7.0000000000000000        0.0000000000000000     
   3.5000000000000000        7.5000000000000000        0.0000000000000000     
   3.5000000000000000        8.0000000000000000        0.0000000000000000     
   3.5000000000000000        8.5000000000000000        0.0000000000000000     
   3.5000000000000000        9.0000000000000000        0.0000000000000000     
   3.5000000000000000        9.5000000000000000        0.0000000000000000     
   3.5000000000000000        10.000000000000000        0.0000000000000000     
   3.5000000000000000        10.500000000000000        0.0000000000000000     
   3.5000000000000000        11.000000000000000        0.0000000000000000     
   3.5000000000000000        11.500000000000000        0.0000000000000000     
   3.5000000000000000        12.000000000000000        0.0000000000000000     
   3.5000000000000000        12.500000000000000        0.0000000000000000     
   3.5000000000000000        13.000000000000000        0.0000000000000000     
   3.5000000000000000        13.500000000000000        0.0000000000000000     
   3.5000000000000000        14.000000000000000        0.0000000000000000     
   3.5000000000000000        14.500000000000000        0.0000000000000000     
   3.5000000000000000        15.000000000000000        0.0000000000000000     
   3.5000000000000000        15.500000000000000        0.0000000000000000     
   3.5000000000000000        16.000000000000000        0.0000000000000000     
   3.5000000000000000        16.500000000000000        0.0000000000000000     
   3.5000000000000000        17.000000000000000        0.0000000000000000     
   3.5000000000000000        17.500000000000000        0.0000000000000000     
   3.5000000000000000        18.000000000000000        0.0000000000000000     
   3.5000000000000000        18.500000000000000        0.0000000000000000     
   3.5000000000000000        19.000000000000000        0.0000000000000000     
   3.5000000000000000        19.500000000000000        0.0000000000000000     
   3.5000000000000000        20.000000000000000        0.0000000000000000     
   3.5000000000000000        20.500000000000000        0.0000000000000000     
   3.5000000000000000        21.000000000000000        0.0000000000000000     
   3.5000000000000000        21.500000000000000        0.0000000000000000     
   3.5000000000000000        22.000000000000000        0.0000000000000000     
   3.5000000000000000        22.500000000000000        0.0000000000000000     
   3.5000000000000000        23.000000000000000        0.0000000000000000     
   3.5000000000000000        23.500000000000000        0.0000000000000000     
   3.5000000000000000        24.000000000000000        0.0000000000000000     
   3.5000000000000000        24.500000000000000        0.0000000000000000     
   3.5000000000000000        25.000000000000000        0.0000000000000000     
   3.5000000000000000        25.500000000000000        0.0000000000000000     
   3.5000000000000000        26.000000000000000        0.0000000000000000     
   3.5000000000000000        26.500000000000000        0.0000000000000000     
   3.5000000000000000        27.000000000000000        0.0000000000000000     
   3.5000000000000000        27.500000000000000        0.0000000000000000     
   3.5000000000000000        28.000000000000000        0.0000000000000000     
   3.5000000000000000        28.500000000000000        0.0000000000000000     
   3.5000000000000000        29.000000000000000        0.0000000000000000     
   3.5000000000000000        29.500000000000000        0.0000000000000000     
   3.5000000000000000        30.000000000000000        0.0000000000000000     
   3.5000000000000000        30.500000000000000        0.0000000000000000     
   3.5000000000000000        31.000000000000000        0.0000000000000000     
   3.5000000000000000        31.500000000000000        0.0000000000000000     
   3.5000000000000000        32.000000000000000        0.0000000000000000     
   3.5000000000000000        32.500000000000000        0.0000000000000000     
   3.5000000000000000        33.000000000000000        0.0000000000000000     
   3.5000000000000000        33.500000000000000        0.0000000000000000     
   3.5000000000000000        34.000000000000000        0.0000000000000000     
   3.5000000000000000        34.500000000000000        0.0000000000000000     
   3.5000000000000000        35.000000000000000        0.0000000000000000     
   3.5000000000000000        35.500000000000000        0.0000000000000000     
   3.5000000000000000        36.000000000000000        0.0000000000000000     
   3.5000000000000000        36.500000000000000        0.0000000000000000     
   3.5000000000000000        37.000000000000000        0.0000000000000000     
   3.5000000000000000        37.500000000000000        0.0000000000000000     
   3.5000000000000000        38.000000000000000        0.0000000000000000     
   3.5000000000000000        38.500000000000000        0.0000000000000000     
   3.5000000000000000        39.000000000000000        0.0000000000000000     
   3.5000000000000000        39.500000000000000        0.0000000000000000     
   3.0625000000000000        40.000000000000000        0.0000000000000000     
   2.6250000000000000        40.000000000000000        0.0000000000000000     
   2.1875000000000000        40.000000000000000        0.0000000000000000     
   1.7500000000000000        40.000000000000000        0.0000000000000000     
   1.3125000000000000        40.000000000000000        0.0000000000000000     
  0.87500000000000000        40.000000000000000        0.0000000000000000     
  0.43750000000000000        40.000000000000000        0.0000000000000000     
   0.0000000000000000        39.500000000000000        0.0000000000000000     
   0.0000000000000000        39.000000000000000        0.0000000000000000     
   0.0000000000000000        38.500000000000000        0.0000000000000000     
   0.0000000000000000        38.000000000000000        0.0000000000000000     
   0.0000000000000000        37.500000000000000        0.0000000000000000     
   0.0000000000000000        37.000000000000000        0.0000000000000000     
   0.0000000000000000        36.500000000000000        0.0000000000000000     
   0.0000000000000000        36.000000000000000        0.0000000000000000     
   0.0000000000000000        35.500000000000000        0.0000000000000000     
   0.0000000000000000        35.000000000000000        0.0000000000000000     
   0.0000000000000000        34.500000000000000        0.0000000000000000     
   0.0000000000000000        34.000000000000000        0.0000000000000000     
   0.0000000000000000        33.500000000000000        0.0000000000000000     
   0.0000000000000000        33.000000000000000        0.0000000000000000     
   0.0000000000000000        32.500000000000000        0.0000000000000000     
   0.0000000000000000        32.000000000000000        0.0000000000000000     
   0.0000000000000000        31.500000000000000        0.0000000000000000     
   0.0000000000000000        31.000000000000000        0.0000000000000000     
   0.0000000000000000        30.500000000000000        0.0000000000000000     
   0.0000000000000000        30.000000000000000        0.0000000000000000     
   0.0000000000000000        29.500000000000000        0.0000000000000000     
   0.0000000000000000        29.000000000000000        0.0000000000000000     
   0.0000000000000000        28.500000000000000        0.0000000000000000     
   0.0000000000000000        28.000000000000000        0.0000000000000000     
   0.0000000000000000        27.500000000000000        0.0000000000000000     
   0.0000000000000000        27.000000000000000        0.0000000000000000     
   0.0000000000000000        26.500000000000000        0.0000000000000000     
   0.0000000000000000        26.000000000000000        0.0000000000000000     
[...]
 CELL_DATA        1368
 SCALARS T double
 LOOKUP_TABLE default
   21.439787901024754     
   27.260955294811982     
   1678.3205308139520     
   48.405368159649441     
   20.000013031208542     
   22.646458580585314     
   1281.1870274512091     
   22.482548309364319     
   20.246511799813870     
   22.103141958705663     
   20.364362350299078     
   42.323924883895273     
   22.070551595320737     
   51.048118795471026     
   43.696027882862865     
   1214.1684811675791     
   1679.5187173134113     
   20.694933164016884     
   20.643592378705467     
   23.944567315328470     
   20.543103795775796     
   20.052684630817275     
   1738.6909173598840     
   20.081244168293566     
   21.244382317545838     
   27.059697043794117     
   20.520237407400877     
   23.048300141865763     
   21.644647404770129     
   20.282771908597564     
   23.818810498997706     
   20.000021568123557     
   26.424728570164028     
   27.681967646206960     
   27.422166295660155     
   20.000018685369852     
   21.054794062296789     
   20.160870078383343     
   20.422862763153017     
   20.147675146097217     
   20.115631161010469     
   21.988072466683622     
   20.122573102709396     
   50.061965843191146     
   20.808754164770701     
   450.44831770066094     
   442.50244896232465     
   21.781328015490736     
   22.221289558294448     
   701.19759708262825     
   706.31815216114603     
   20.309510319305016     
   21.028630724259131     
   20.000017625028399     
   1710.0277420085329     
   20.000015610557995     
   20.000036753164409     
   20.051514984364207     
   20.030480109902769     
   20.061970439944812     
   20.000045328653666     
   48.131326048636303     
   20.094379476164434     
   20.000079225408125     
   23.457844515974678     
   24.211382549887389     
   20.248272536417733     
   23.989274478275206     
   20.442788800725353     
   20.562654724256511     
   20.000031472201115     
   1678.5886272783000     
   20.000053277383152     
   20.506909974660601     
   20.187934099078543     
   20.246813278529199     
   20.000108207988287     
   20.000228919719778     
   20.000026637034864     
   426.77313279252269     
   20.068053099146599     
   20.028344286538076     
   266.08070853988511     
   20.018603037419201     
   169.34992882965375     
   20.913017855276493     
   21.140531115596545     
   422.79333015399874     
   20.043662532253897     
   864.65282188011156     
   20.096793669406182     
   20.126544461174955     
   72.835094650918819     
   20.000637551142951     
   808.43461490628624     
   20.009370453367112     
   50.607944917231123     
   20.000308254682128     
   20.010479202521296     
   20.000133222009890     
   264.27261097044931     
   20.000092941445260     
   224.58216535312096     
   228.29535467707242     
   20.113127389357420     
   20.036900935199505     
   20.000025898174105     
   20.229767340946580     
   20.000022405705696     
   20.000153793703799     
   31.073095334379708     
   534.88169245639131     
   30.477297085385835     
   20.005777520020764     
   20.000066098901510     
   20.000013035220181     
   144.37131441538432     
   25.694791325092385     
   146.55155162666358     
   20.003097837231884     
   20.000093744212453     
   20.005184115224147     
   20.029796352036090     
   168.22941785907688     
   23.019850597472800     
   324.41887741936824     
   20.213293337595367     
   20.269380388180974     
   20.022535744555903     
   21.101712117840979     
   20.000031722821610     
   20.006950163103831     
   545.72489173448844     
   21.549679075176282     
   20.000266666031081     
   20.000850915200214     
   20.768885816762275     
   95.211027664909821     
   1323.1317327164988     
   96.716249034733906     
   1011.2736858287961     
   489.05349751347660     
   205.56307305912009     
   20.007784805331649     
   20.016856698297172     
   20.002294915202807     
   512.03975421757946     
   20.012576441556298     
   20.000192129557586     
   20.000269310351968     
   20.003028587115605     
   328.66509912870799     
   20.016793077689503     
   64.740693698558459     
   65.518781758332366     
   20.000376723266633     
   20.001988797807321     
   131.61271438659335     
   20.022915636497689     
   20.000735727214593     
   20.000433573108538     
   20.000064596488190     
   43.609083109309495     
   72.359299721461142     
   20.048756906031667     
   23.260692872740407     
   20.000744834962319     
   20.000012111407656     
   253.98901338716678     
   208.17398546989531     
   20.004245267096369     
   20.001460943234957     
   20.000535997493799     
   50.345661464260331     
   58.809244113143244     
   20.001587543085396     
   1016.3850998765894     
   20.875825609496186     
   132.89332906893517     
   20.001032839018997     
   172.99592206960878     
   164.25933010011772     
   42.231755715298789     
   20.001176721461327     
   38.302100833877624     
   20.002814580238397     
   20.024893319050427     
   20.033112998577767     
   65.100994504526255     
   20.000025002484215     
   269.66904179281545     
   20.205320118236422     
   28.415777586095516     
   28.424668225279042     
   33.191540597638202     
   20.000013490582798     
   586.84999471073741     
   20.002958586952051     
   20.000022143696867     
   20.001434837992750     
   30.257218865648898     
   20.001981946933984     
   112.79615789218740     
   20.014056105101162     
   20.018736483446727     
   20.005722517487857     
   107.26763023455959     
   25.626870385239243     
   20.001625989376517     
   20.000025473872554     
   20.002245748820727     
   20.000042101553795     
   27.220656717032337     
   20.000011828012262     
   20.006490112484471     
   20.001056574379948     
   20.010428350142671     
   20.013905613862487     
   20.261998729342121     
   20.002715344881597     
   25.572348102867700     
   20.000029264719135     
   20.021361389746463     
   62.730514207896171     
   20.010466208428813     
   59.430836581669908     
   20.011838995467787     
   20.000762627882484     
   20.000017346134630     
   20.000875746287981     
   20.003771478997027     
   20.000035992898923     
   22.954319129995586     
   20.000187719653727     
   23.866228216024314     
   20.000632390517023     
   20.025050363868544     
   20.000019211036356     
   21.515530111936435     
   20.028274087373919     
   36.373111105895561     
   42.546078324566565     
   337.12046565287210     
   21.575423790415648     
   59.048521129495953     
   75.528059836632352     
   1437.1889487202877     
   72.124448317704832     
   20.751028125928602     
   20.000547950871905     
   20.000279474673459     
   20.058194707275373     
   20.004193617627621     
   22.010479042785533     
   1519.3022424175801     
   20.000229318070023     
   20.000453582028989     
   20.001207260456752     
   20.065262800610892     
   20.004758095051894     
   20.000035249447080     
   748.58373436353622     
   577.65388481318723     
   20.130512060031180     
   20.032766124735609     
   20.009424414175868     
   21.013535159185775     
   20.000040430577862     
   20.145547319106935     
   1462.6766571442947     
   33.548975479598447     
   20.394929751909000     
   20.003478815079873     
   20.003699312154499     
   20.002708120228863     
   20.000038791043405     
   20.282960752151826     
   20.000035231316481     
   1386.8850726699079     
   1190.0377925884748     
   20.000009281975927     
   1256.6159638916340     
   20.000040203183207     
   20.313805634639660     
   1370.8335839213603     
   20.029922824066759     
   34.111518136356949     
   872.80527484290735     
   1393.8635345490293     
   20.000103028579581     
   27.446779072577414     
   20.000018620227511     
   20.000393005164902     
   20.003113311936467     
   20.004270515481853     
   20.000198152813418     
   20.000023648003832     
   20.000113776829195     
   20.000019458087287     
   926.33875564302070     
   23.991306924721055     
   20.000322544189022     
   665.80334732608867     
   20.000017058951073     
   20.000161484169077     
   22.077671613036294     
   21.047966505223261     
   20.000012290146859     
   20.000016573873758     
   1181.7001888886214     
   20.000027170589867     
   1292.8326139360609     
   1075.7242331470115     
   20.003821364996337     
   20.003135184909222     
   1482.9498409311823     
   33.488469190165183     
   341.13110481521966     
   20.086833663056641     
   20.000023586813853     
   20.000013205693929     
   20.000045714270367     
   786.11882085517072     
   20.001676188105872     
   20.000031380049787     
   20.000526473867779     
   20.001495440380843     
   20.018778148298217     
   1323.1144247704190     
   766.32682713350709     
   20.000018958570653     
   20.000038536641444     
   55.120411389284229     
   1206.0509827336141     
   20.001653349609615     
   20.000055768550379     
   1216.6029053327200     
   1294.7804019890652     
   20.021090007212941     
   20.007750003476833     
   1013.1252737541531     
   20.000032882248075     
   20.000102152007049     
   20.000069300677971     
   20.000071632174876     
   918.40281594424835     
   20.008756984290461     
   20.000098565742718     
   20.000116697324479     
   33.590263156180747     
   30.024132976988746     
   20.000055714727239     
   20.000024519117382     
   20.024701280978178     
   20.000055282213609     
   1146.4783424324082     
   20.000079197308537     
   1044.4556093482377     
   20.000050745293262     
   866.61576194207305     
   20.000024651171312     
   981.41650373651896     
   785.18314322549998     
   1037.1425409967383     
   1212.3100982130211     
   1042.9676985376946     
   20.000051495865698     
   20.000027157113262     
   20.000039108788894     
   877.62923974971727     
   847.15752729932001     
   769.86463505303334     
   741.96738045050563     
   1125.1084375631015     
   670.57236660064132     
   20.001452441940526     
   20.000050308315362     
   20.000146455748911     
   20.000140656167460     
   1235.2909793301760     
   896.74715101377296     
   899.25605518946270     
   973.35605384701535     
   636.44458814987536     
   728.82085909054388     
   20.000161556319760     
   20.000133841160203     
   20.000326977200579     
   572.03473105707258     
   839.56846455634468     
   569.71414724163174     
   20.000165030148324     
   20.000436290041026     
   20.000557077489113     
   636.65430305089637     
   478.50561553837542     
   773.45701106507317     
   20.000285968194444     
   621.76579759331287     
   658.94105194072972     
   20.000144252390328     
   20.000409527362553     
   669.37329418186062     
   20.000772759722622     
   20.000398291914699     
   545.90072545552368     
   20.000607468475202     
   20.000455369046296     
   20.000379920037059     
   20.000884244083409     
   572.26797543712019     
   466.40941093391956     
   489.10860248743199     
   20.000159225557098     
   398.02825798909259     
   418.94584181208052     
   20.001712413207507     
   20.002010473860356     
   20.000204400518680     
   20.001908540551788     
   722.57052501813621     
   20.003730880591000     
   20.004290486592939     
   20.005102282287449     
   20.002174151122382     
   305.72324124341264     
   20.003240123868387     
   20.002754845798663     
   413.31264721705293     
   20.005161761370946     
   20.003775111619699     
   20.000223274628897     
   20.005763386528514     
   20.005006540198025     
   20.004006611825272     
   20.009356780997770     
   20.004428529273873     
   20.016904384677197     
   20.019264793696468     
   20.040488002282483     
   20.030392992100520     
   20.026468372581153     
   20.035166380782101     
   20.052764145670388     
   20.118907666921071     
   20.061379090392311     
   20.053299389673580     
   20.092328329404317     
   20.070290731440860     
   20.259064728821038     
   20.137489056080884     
   20.120089670327005     
   20.203456103061601     
   20.156579158455706     
   20.138054044466831     
   20.080605629450023     
   20.178058143872242     
   20.145408933169755     
   20.113441887957176     
   20.106461013729685     
   20.544545802681064     
   20.297774178649956     
   20.261580323192959     
   20.433654454172004     
   20.337276997541597     
   20.178531753158556     
   402.04002226379140     
   21.111028087039262     
   20.624327952176888     
   20.550733614348125     
   20.891753142904665     
   20.700742368377039     
   20.382435358318098     
   20.767544640923933     
   20.621117390752147     
   20.467822894135487     
   20.594834232996526     
   22.195973994219457     
   21.266087866861469     
   21.123184951657620     
   21.780496785256098     
   21.416568455067562     
   20.793064008640478     
   20.495651355070908     
   24.213108668707221     
   22.488672975002444     
   22.219379149429031     
   23.447769867800396     
   22.770889992911158     
   21.591107811213138     
   22.828894539459437     
   22.345403924164657     
   21.814205816946437     
   22.260800218610377     
   27.855720455837652     
   24.749206952604130     
   24.256550018975791     
   26.490751200564372     
   25.256137434960110     
   23.096303983683569     
   251.05772390894242     
   287.74481361237849     
   261.34984107857872     
   21.903301787916675     
   29.689376543889001     
   144.05581459269615     
   304.01062649262764     
   157.84463936732936     
   143.57593930794755     
   160.08697035222380     
   34.258269202788796     
   282.13247469550993     
   253.42167398715344     
   302.97411478023525     
   28.811202466680061     
   27.934294253876999     
   82.418818526459830     
   247.21170700061950     
   136.57908387400079     
   77.423189103165768     
   161.58027601071313     
   25.852951674246338     
   124.07926285843116     
   246.53553183485690     
   30.782608693743668     
   31.891741449405345     
   337.57797505436912     
   213.77171436001106     
   192.85360156453791     
   138.22463529696856     
   48.571488610162227     
   116.40586632626425     
   41.021449157304183     
   39.232085867536433     
   90.684893939628807     
   49.873179299743633     
   342.35878876451261     
   35.907463943288654     
   34.393659746908902     
   261.05903183780612     
   40.636755016069387     
   250.86054289499415     
   93.874287668311894     
   166.80574785975367     
   48.052536226484193     
   185.73822902185688     
   184.93805974948285     
   182.93339893898860     
   243.37062406023526     
   37.364892576479079     
   166.61977904989814     
   109.14969277583144     
   107.96622310698599     
   308.05817385644150     
   102.88203781884671     
   341.32307085804956     
   70.187404140628104     
   79.054417544992219     
   90.480864127727060     
   224.65949630635805     
   355.25493314171894     
   54.546718291509883     
   195.70716153407361     
   276.88031525330194     
   20.007273826570259     
   82.851782784174773     
   88.938462317923140     
   322.84328945080654     
   20.016102385327208     
   20.009059893312365     
   71.865121833875818     
   39.273015469511463     
   95.005980291234451     
   145.49087177621055     
   446.35580542183180     
   324.96266280855650     
   239.70444905760880     
   271.99686672807081     
   152.60998870653842     
   100.75208509702045     
   68.592951952829736     
   48.850150963120576     
   36.853360376128784     
   29.566473672702266     
   25.351002104518710     
   22.897264398500941     
   21.534985721400648     
   20.786596611269758     
   20.390932774207485     
   20.185814117205997     
   20.087971253850853     
   20.039293524038737     
   20.017270699052968     
   20.013000329597915     
   20.009717110695362     
   20.012092763223290     
   20.005393883546176     
   20.006751768031048     
   20.002177861038554     
   20.000841065665540     
   20.000312949656319     
   20.000112668216072     
   20.009480996756722     
   20.000113744102340     
   20.000324675703851     
   20.000892194304150     
   20.002367541726791     
   20.006041349288608     
   20.011045858563090     
   20.014815970212585     
   20.012775624038053     
   20.019845266332279     
   20.017152982315316     
   20.046675996868739     
   20.105738926057896     
   20.231549016452789     
   20.490608090694966     
   21.005878312110429     
   21.997291943674142     
   23.848284861979881     
   27.204628865006693     
   33.127450251821493     
   43.333063723997633     
   60.589475595181433     
   89.351224957406302     
   102.58533260351948     
   95.221271289249628     
   118.33938164248028     
   136.53512011687505     
   213.14800952197362     
   336.28511549464554     
   532.52097876552773     
   102.26614838996089     
   215.91985526822083     
   226.95355287386869     
   160.34616898134303     
   20.007012707448983     
   117.78471287002323     
   292.40237208121897     
   69.098605417530607     
   125.67469379561442     
   53.728314519672900     
   20.008162812478709     
   60.635216879914452     
   108.96691098053815     
   264.75387221610049     
   72.449092828030999     
   358.82941572335568     
   50.061051049203478     
   79.245704272806194     
   168.53299264863884     
   124.20112770684575     
   64.402230698272788     
   119.62906671950626     
   54.674669771882300     
   56.848723584714975     
   50.811337110585463     
   69.906369650404173     
   61.459073093640903     
   138.19832427213333     
   291.40206419031904     
   179.44946449037758     
   126.17258304109819     
   56.168319596057955     
   39.940967774234920     
   68.432129299329446     
   119.26466795460131     
   81.903636644873330     
   63.367404343599524     
   77.936630829316115     
   44.981595414712011     
   103.96247857830470     
   48.053842386610185     
   48.899329693638279     
   41.062063303374259     
   45.485427355017336     
   43.952541569255565     
   155.84702589696101     
   48.844214255826394     
   157.69291274828862     
   37.118159346111028     
   43.394900360786139     
   101.78164564570120     
   39.773541499150895     
   29.099931579340307     
   37.134305762290815     
   104.07390632055034     
   94.059302977342014     
   108.02153850766905     
   36.211219994611866     
   31.114894611555201     
   192.56758521518643     
   29.595119233672879     
   223.94596136781050     
   34.320118413416857     
   33.524527062103182     
   24.947304841025662     
   29.476719366600481     
   31.781371191127356     
   215.36261303792250     
   29.016084028214621     
   31.080443259193697     
   29.507175720531027     
   29.696662770709565     
   25.247011291206050     
   29.047456395703158     
   26.031101829541520     
   27.957028673578108     
   27.424689652471692     
   26.508808949764216     
   22.590475474390566     
   25.156478166420872     
   26.056438758012838     
   25.280817073731352     
   24.906305741707516     
   22.787670994927748     
   23.196438846432933     
   24.291413959404416     
   23.987554680136494     
   23.473288571927430     
   21.341568926124957     
   22.718494650740631     
   23.218733220215448     
   22.789208085844749     
   22.581484586784018     
   21.435748639318334     
   21.668777425280457     
   22.247640942398927     
   22.078645690498227     
   21.804326327947024     
   20.666515906817889     
   21.393254010740819     
   21.664019509605598     
   21.437134588259056     
   21.323405236955438     
   20.724842552847807     
   20.836849276327936     
   21.145539723740168     