# vtk DataFile Version 2.0
 temperature
 ASCII
 DATASET UNSTRUCTURED_GRID
 POINTS         773  double
   0.0000000000000000        0.0000000000000000        0.0000000000000000     
   3.5000000000000000        0.0000000000000000        0.0000000000000000     
   3.5000000000000000        40.000000000000000        0.0000000000000000     
   0.0000000000000000        40.000000000000000        0.0000000000000000     
  0.43750000000000000        0.0000000000000000        0.0000000000000000     
  0.87500000000000000        0.0000000000000000        0.0000000000000000     
   1.3125000000000000        0.0000000000000000        0.0000000000000000     
   1.7500000000000000        0.0000000000000000        0.0000000000000000     
   2.1875000000000000        0.0000000000000000        0.0000000000000000     
   2.6250000000000000        0.0000000000000000        0.0000000000000000     
   3.0625000000000000        0.0000000000000000        0.0000000000000000     
   3.5000000000000000       0.50000000000000000        0.0000000000000000     
   3.5000000000000000        1.0000000000000000        0.0000000000000000     
   3.5000000000000000        1.5000000000000000        0.0000000000000000     
   3.5000000000000000        2.0000000000000000        0.0000000000000000     
   3.5000000000000000        2.5000000000000000        0.0000000000000000     
   3.5000000000000000        3.0000000000000000        0.0000000000000000     
   3.5000000000000000        3.5000000000000000        0.0000000000000000     
   3.5000000000000000        4.0000000000000000        0.0000000000000000     
   3.5000000000000000        4.5000000000000000        0.0000000000000000     
   3.5000000000000000        5.0000000000000000        0.0000000000000000     
   3.5000000000000000        5.5000000000000000        0.0000000000000000     
   3.5000000000000000        6.0000000000000000        0.0000000000000000     
   3.5000000000000000        6.5000000000000000        0.0000000000000000     
   3.5000000000000000        7.0000000000000000        0.0000000000000000     
   3.5000000000000000        7.5000000000000000        0.0000000000000000     
   3.5000000000000000        8.0000000000000000        0.0000000000000000     
   3.5000000000000000        8.5000000000000000        0.0000000000000000     
   3.5000000000000000        9.0000000000000000        0.0000000000000000     
   3.5000000000000000        9.5000000000000000        0.0000000000000000     
   3.5000000000000000        10.000000000000000        0.0000000000000000     
   3.5000000000000000        10.500000000000000        0.0000000000000000     
   3.5000000000000000        11.000000000000000        0.0000000000000000     
   3.5000000000000000        11.500000000000000        0.0000000000000000     
   3.5000000000000000        12.000000000000000        0.0000000000000000     
   3.5000000000000000        12.500000000000000        0.0000000000000000     
   3.5000000000000000        13.000000000000000        0.0000000000000000     
   3.5000000000000000        13.500000000000000        0.0000000000000000     
   3.5000000000000000        14.000000000000000        0.0000000000000000     
   3.5000000000000000        14.500000000000000        0.0000000000000000     
   3.5000000000000000        15.000000000000000        0.0000000000000000     
   3.5000000000000000        15.500000000000000        0.0000000000000000     
   3.5000000000000000        16.000000000000000        0.0000000000000000     
   3.5000000000000000        16.500000000000000        0.0000000000000000     
   3.5000000000000000        17.000000000000000        0.0000000000000000     
   3.5000000000000000        17.500000000000000        0.0000000000000000     
   3.5000000000000000        18.000000000000000        0.0000000000000000     
   3.5000000000000000        18.500000000000000        0.0000000000000000     
   3.5000000000000000        19.000000000000000        0.0000000000000000     
   3.5000000000000000        19.500000000000000        0.0000000000000000     
   3.5000000000000000        20.000000000000000        0.0000000000000000     
   3.5000000000000000        20.500000000000000        0.0000000000000000     
   3.5000000000000000        21.000000000000000        0.0000000000000000     
   3.5000000000000000        21.500000000000000        0.0000000000000000     
   3.5000000000000000        22.000000000000000        0.0000000000000000     
   3.5000000000000000        22.500000000000000        0.0000000000000000     
   3.5000000000000000        23.000000000000000        0.0000000000000000     
   3.5000000000000000        23.500000000000000        0.0000000000000000     
   3.5000000000000000        24.000000000000000        0.0000000000000000     
   3.5000000000000000        24.500000000000000        0.0000000000000000     
   3.5000000000000000        25.000000000000000        0.0000000000000000     
   3.5000000000000000        25.500000000000000        0.0000000000000000     
   3.5000000000000000        26.000000000000000        0.0000000000000000     
   3.5000000000000000        26.500000000000000        0.0000000000000000     
   3.5000000000000000        27.000000000000000        0.0000000000000000     
   3.5000000000000000        27.500000000000000        0.0000000000000000     
   3.5000000000000000        28.000000000000000        0.0000000000000000     
   3.5000000000000000        28.500000000000000        0.0000000000000000     
   3.5000000000000000        29.000000000000000        0.0000000000000000     
   3.5000000000000000        29.500000000000000        0.0000000000000000     
   3.5000000000000000        30.000000000000000        0.0000000000000000     
   3.5000000000000000        30.500000000000000        0.0000000000000000     
   3.5000000000000000        31.000000000000000        0.0000000000000000     
   3.5000000000000000        31.500000000000000        0.0000000000000000     
   3.5000000000000000        32.000000000000000        0.0000000000000000     
   3.5000000000000000        32.500000000000000        0.0000000000000000     
   3.5000000000000000        33.000000000000000        0.0000000000000000     
   3.5000000000000000        33.500000000000000        0.0000000000000000     
   3.5000000000000000        34.000000000000000        0.0000000000000000     
   3.5000000000000000        34.500000000000000        0.0000000000000000     
   3.5000000000000000        35.000000000000000        0.0000000000000000     
   3.5000000000000000        35.500000000000000        0.0000000000000000     
   3.5000000000000000        36.000000000000000        0.0000000000000000     
   3.5000000000000000        36.500000000000000        0.0000000000000000     
   3.5000000000000000        37.000000000000000        0.0000000000000000     
   3.5000000000000000        37.500000000000000        0.0000000000000000     
   3.5000000000000000        38.000000000000000        0.0000000000000000     
   3.5000000000000000        38.500000000000000        0.0000000000000000     
   3.5000000000000000        39.000000000000000        0.0000000000000000     
   3.5000000000000000        39.500000000000000        0.0000000000000000     
   3.0625000000000000        40.000000000000000        0.0000000000000000     
   2.6250000000000000        40.000000000000000        0.0000000000000000     
   2.1875000000000000        40.000000000000000        0.0000000000000000     
   1.7500000000000000        40.000000000000000        0.0000000000000000     
   1.3125000000000000        40.000000000000000        0.0000000000000000     
  0.87500000000000000        40.000000000000000        0.0000000000000000     
  0.43750000000000000        40.000000000000000        0.0000000000000000     
   0.0000000000000000        39.500000000000000        0.0000000000000000     
   0.0000000000000000        39.000000000000000        0.0000000000000000     
   0.0000000000000000        38.500000000000000        0.0000000000000000     
   0.0000000000000000        38.000000000000000        0.0000000000000000     
   0.0000000000000000        37.500000000000000        0.0000000000000000     
   0.0000000000000000        37.000000000000000        0.0000000000000000     
   0.0000000000000000        36.500000000000000        0.0000000000000000     
   0.0000000000000000        36.000000000000000        0.0000000000000000     
   0.0000000000000000        35.500000000000000        0.0000000000000000     
   0.0000000000000000        35.000000000000000        0.0000000000000000     
   0.0000000000000000        34.500000000000000        0.0000000000000000     
   0.0000000000000000        34.000000000000000        0.0000000000000000     
   0.0000000000000000        33.500000000000000        0.0000000000000000     
   0.0000000000000000        33.000000000000000        0.0000000000000000     
   0.0000000000000000        32.500000000000000        0.0000000000000000     
   0.0000000000000000        32.000000000000000        0.0000000000000000     
   0.0000000000000000        31.500000000000000        0.0000000000000000     
   0.0000000000000000        31.000000000000000        0.0000000000000000     
   0.0000000000000000        30.500000000000000        0.0000000000000000     
   0.0000000000000000        30.000000000000000        0.0000000000000000     
   0.0000000000000000        29.500000000000000        0.0000000000000000     
   0.0000000000000000        29.000000000000000        0.0000000000000000     
   0.0000000000000000        28.500000000000000        0.0000000000000000     
   0.0000000000000000        28.000000000000000        0.0000000000000000     
   0.0000000000000000        27.500000000000000        0.0000000000000000     
   0.0000000000000000        27.000000000000000        0.0000000000000000     
   0.0000000000000000        26.500000000000000        0.0000000000000000     
   0.0000000000000000        26.000000000000000        0.0000000000000000     
[...]
 CELL_DATA        1368
 SCALARS T double
 LOOKUP_TABLE default
   20.058133378245891     
   20.832331824217302     
   1663.5958358672533     
   30.321553508515727     
   20.000000000002473     
   20.158760351441106     
   1268.2701849825607     
   20.135221986677511     
   20.002130760937611     
   20.104537497830822     
   20.004329331621221     
   26.238004678064424     
   20.084954484921123     
   31.219255744964304     
   26.935726213198887     
   1200.9619040572982     
   1664.4400859152870     
   20.013028808960552     
   20.010701010844926     
   20.278012458385898     
   20.008128193544842     
   20.000103611595897     
   1727.0962542652599     
   20.000230239200153     
   20.047044336062417     
   20.885575827476526     
   20.006204820141971     
   20.197781352252065     
   20.066467038140676     
   20.002649609050710     
   20.296868974787404     
   20.000000000006320     
   20.685785140645482     
   20.939962511763515     
   20.984690595254872     
   20.000000000004817     
   20.023947320232349     
   20.000769205229517     
   20.005052521735838     
   20.000616799704428     
   20.000328546078485     
   20.089512085361019     
   20.000452603192549     
   29.949085360669311     
   20.016647475788737     
   379.92242551551840     
   373.05353815436746     
   20.066257475338784     
   20.100151699554001     
   673.49007684022286     
   675.80139845466420     
   20.003369290018089     
   20.026190757919320     
   20.000000000004430     
   1700.2475366412816     
   20.000000000003517     
   20.000000000019174     
   20.000076851329936     
   20.000035063592048     
   20.000134942659567     
   20.000000000029303     
   29.389930360033304     
   20.000268929918011     
   20.000000000090939     
   20.225139546423964     
   20.321190763282829     
   20.001479743422731     
   20.327046877219885     
   20.004714800260867     
   20.007487860631990     
   20.000000000013788     
   1667.0560508051401     
   20.000000000041361     
   20.006768045024774     
   20.000997886589300     
   20.001688168796402     
   20.000000000178623     
   20.000000000808168     
   20.000000000009525     
   354.56481904054647     
   20.000173870104792     
   20.000028317560361     
   196.77818335691390     
   20.000010550224800     
   109.86004656370145     
   20.018827967324945     
   20.028644329104321     
   351.05008043019944     
   20.000058009958160     
   840.22155075165972     
   20.000240825076858     
   20.000409719808044     
   39.224300029342416     
   20.000000006610687     
   784.46139006956128     
   20.000002168465493     
   28.005234894086879     
   20.000000001535795     
   20.000003328088972     
   20.000000000270575     
   195.48878446597391     
   20.000000000129070     
   182.06393913864665     
   183.40550842694643     
   20.000363757852920     
   20.000048117287040     
   20.000000000009365     
   20.001781690722876     
   20.000000000006718     
   20.000000000367756     
   21.986068137039720     
   471.00734190746596     
   21.306085364330180     
   20.000000848698999     
   20.000000000062851     
   20.000000000002544     
   105.12527981617842     
   20.439750254074415     
   105.53411354715932     
   20.000000171994220     
   20.000000000129376     
   20.000000760690028     
   20.000022096946914     
   109.19654193823764     
   20.137531128858949     
   254.80041490823282     
   20.001138785082830     
   20.001794550486377     
   20.000014661485203     
   20.030619764024578     
   20.000000000013728     
   20.000001182690159     
   480.29085494321072     
   20.039377666690175     
   20.000000001127887     
   20.000000012313389     
   20.010326000821536     
   62.557765880768649     
   1308.1619213584252     
   62.670647662965493     
   993.24161777398012     
   452.45001329043998     
   142.64580451453023     
   20.000001558596466     
   20.000008203536357     
   20.000000152742079     
   474.56519721226738     
   20.000004563433169     
   20.000000000566658     
   20.000000001133987     
   20.000000168882586     
   257.98861499614333     
   20.000007008037166     
   39.928699699881811     
   39.909568746238278     
   20.000000002290065     
   20.000000132572417     
   80.244365887238004     
   20.000019974757205     
   20.000000009042132     
   20.000000003090580     
   20.000000000061025     
   28.206183813140044     
   39.046588531706981     
   20.000084257487675     
   20.234270507680868     
   20.000000009133167     
   20.000000000002292     
   211.18066173672077     
   144.29181170353931     
   20.000000537577499     
   20.000000049555823     
   20.000000004654879     
   27.937653929911672     
   32.030358820348354     
   20.000000090709747     
   996.46068544312311     
   20.020385411833040     
   80.832308035403273     
   20.000000018074914     
   130.23064148274975     
   123.37875248333361     
   24.821732032530154     
   20.000000023875721     
   24.425119790997837     
   20.000000218352973     
   20.000016100154212     
   20.000028474478423     
   37.592337944989431     
   20.000000000008999     
   224.88499389540050     
   20.001252154886995     
   21.321455749757718     
   21.301699942403893     
   22.052685900428610     
   20.000000000003968     
   551.84960432115247     
   20.000000322482304     
   20.000000000008058     
   20.000000035391647     
   21.278570335529139     
   20.000000068463997     
   76.025052842587911     
   20.000005104515584     
   20.000009100942243     
   20.000000617195749     
   72.324082957291608     
   20.587973201360217     
   20.000000046235996     
   20.000000000011113     
   20.000000089344145     
   20.000000000026748     
   20.712180833930450     
   20.000000000003471     
   20.000000810503263     
   20.000000025639757     
   20.000002083353159     
   20.000005905358826     
   20.001952798240708     
   20.000000130185363     
   20.430213378110267     
   20.000000000012655     
   20.000016116569086     
   36.202518279144364     
   20.000002823269970     
   32.212721286066774     
   20.000002741044323     
   20.000000013167568     
   20.000000000006267     
   20.000000018261456     
   20.000000341380250     
   20.000000000019039     
   20.134335525135665     
   20.000000000549345     
   20.230282184960728     
   20.000000009376087     
   20.000012222331847     
   20.000000000006970     
   20.038433035100542     
   20.000015862042925     
   23.699649333296001     
   24.877465512512135     
   284.55048956305620     
   20.057855448747976     
   35.464354835659996     
   46.776121356324985     
   1419.6852372789033     
   44.926939699796527     
   20.010079736598126     
   20.000000006697501     
   20.000000001680963     
   20.000066237475554     
   20.000000327252536     
   20.068567016535862     
   1499.0266322390596     
   20.000000001172520     
   20.000000004756185     
   20.000000035148556     
   20.000084687347826     
   20.000000431656417     
   20.000000000033861     
   704.24743872059389     
   545.89592119037275     
   20.000330066128818     
   20.000032572765733     
   20.000002551762659     
   20.018778706197104     
   20.000000000025757     
   20.000416314248195     
   1443.7146612977640     
   22.103205701324789     
   20.004165555326885     
   20.000000228463971     
   20.000000468639122     
   20.000000248071068     
   20.000000000030280     
   20.001514944377444     
   20.000000000027605     
   1356.7530413533418     
   1182.3885212913126     
   20.000000000002345     
   1229.7947989601396     
   20.000000000038554     
   20.001884823528048     
   1347.2259783320603     
   20.000025824902359     
   23.367535305415455     
   841.40244163458510     
   1369.0692125552650     
   20.000000000251994     
   20.733840890675630     
   20.000000000004690     
   20.000000003392309     
   20.000000241687637     
   20.000000459686007     
   20.000000000832689     
   20.000000000010346     
   20.000000000278238     
   20.000000000008512     
   892.06847094431214     
   20.237408440547721     
   20.000000002368701     
   620.69343403701714     
   20.000000000007496     
   20.000000000573351     
   20.070762615123524     
   20.019388187212108     
   20.000000000002565     
   20.000000000004867     
   1150.2449544829778     
   20.000000000021537     
   1272.0308182416995     
   1041.4619462820306     
   20.000000408389432     
   20.000000289241687     
   1457.4519450079481     
   23.111357664453017     
   290.25634825678981     
   20.000215019435107     
   20.000000000008647     
   20.000000000004757     
   20.000000000029310     
   746.25547167245020     
   20.000000080680486     
   20.000000000016588     
   20.000000004559112     
   20.000000060604592     
   20.000006842305201     
   1294.1278296699411     
   749.05398046905668     
   20.000000000010193     
   20.000000000020492     
   33.054687587424880     
   1166.8086628150995     
   20.000000066722503     
   20.000000000064269     
   1191.4095168570034     
   1259.8035401120185     
   20.000008797871764     
   20.000001141757771     
   974.33287535777356     
   20.000000000017245     
   20.000000000303579     
   20.000000000095913     
   20.000000000146386     
   877.35125892312317     
   20.000001488442368     
   20.000000000197865     
   20.000000000346692     
   22.494574088305736     
   21.758267885344100     
   20.000000000095000     
   20.000000000015920     
   20.000018622992968     
   20.000000000043311     
   1109.3162141037817     
   20.000000000195922     
   1004.0584554175757     
   20.000000000058645     
   821.28571253761493     
   20.000000000013102     
   936.40294455425885     
   738.17703051609988     
   1004.9733591709190     
   1179.5590317963620     
   995.47344981087338     
   20.000000000039883     
   20.000000000014445     
   20.000000000045752     
   839.10415189767343     
   795.79778097498115     
   716.64556219263557     
   691.06075076595266     
   1081.5193622509512     
   618.66662124331037     
   20.000000069861862     
   20.000000000070543     
   20.000000000519741     
   20.000000000410957     
   1216.0507441661380     
   841.96122028075195     
   851.81883275753728     
   922.09370650089261     
   587.58936624787236     
   672.27959716274120     
   20.000000000395815     
   20.000000000269484     
   20.000000002878981     
   503.16830096050495     
   781.74202531545052     
   501.61024866722789     
   20.000000000708500     
   20.000000006516974     
   20.000000009868419     
   581.36229582809199     
   426.42102781368004     
   712.80188794066237     
   20.000000002518192     
   554.38798901767620     
   601.17827309101278     
   20.000000000618584     
   20.000000004295572     
   604.15845426086810     
   20.000000019250233     
   20.000000004964242     
   487.12398113036926     
   20.000000012807693     
   20.000000003322540     
   20.000000002298865     
   20.000000022020952     
   516.55253241553737     
   404.88706299211873     
   430.66816023031146     
   20.000000000823537     
   335.10610402559951     
   358.47914579553600     
   20.000000049984489     
   20.000000069598766     
   20.000000001261892     
   20.000000076185291     
   659.35814456668368     
   20.000000248557132     
   20.000000333961157     
   20.000000470342165     
   20.000000102859016     
   262.65004128885278     
   20.000000183542166     
   20.000000132401322     
   347.94005914408251     
   20.000000475311548     
   20.000000251443243     
   20.000000001646871     
   20.000001000839525     
   20.000000867406705     
   20.000000597886981     
   20.000001611299886     
   20.000000346903523     
   20.000005336861552     
   20.000007021145972     
   20.000030563147622     
   20.000017188399319     
   20.000012974869538     
   20.000022963521836     
   20.000052589929922     
   20.000265411015917     
   20.000070071084842     
   20.000053029018755     
   20.000158660928772     
   20.000092163458593     
   20.001233987049332     
   20.000348653763822     
   20.000267561569661     
   20.000758466880058     
   20.000452408772485     
   20.000656674620096     
   20.000120712508682     
   20.001086168861399     
   20.000787807103681     
   20.000480111146235     
   20.000393203937335     
   20.005257891726686     
   20.001598122093828     
   20.001243630237582     
   20.003339889048050     
   20.002045714442239     
   20.000584466897507     
   333.15523280603577     
   20.020731667595641     
   20.006752445968981     
   20.005315078923989     
   20.013459930398405     
   20.008465335363130     
   20.002606989096421     
   20.017913116965019     
   20.012953961418226     
   20.007011916936200     
   20.011095393883362     
   20.075267482181491     
   20.026231427358692     
   20.020944768560923     
   20.050207958142025     
   20.032567442950640     
   20.010713279855391     
   20.008386761701193     
   20.252007837494489     
   20.093894997944233     
   20.076014400107027     
   20.172539951821054     
   20.115034594005724     
   20.040480258140839     
   20.203085037804922     
   20.154090027557782     
   20.090158162889143     
   20.135257959715123     
   20.778469979153979     
   20.309935291062395     
   20.254384006129555     
   20.547684442371644     
   20.373831402617753     
   20.141019062172418     
   194.05142708008810     
   221.53858711115782     
   206.10892510479624     
   20.104918631756838     
   21.120221105519640     
   96.984408715847067     
   238.68600516091729     
   102.76336823404478     
   91.564319962038581     
   109.68070568416982     
   22.221606550593378     
   230.90094516642324     
   187.36127212256062     
   247.12546453217846     
   20.944431536276273     
   20.785566502156474     
   48.655332147976189     
   182.91401526435232     
   85.307015674093066     
   46.430444411020673     
   104.96521350754325     
   20.453232251990372     
   76.042589194187869     
   198.00861827786684     
   21.349464994037707     
   21.606229991442270     
   270.33156685444607     
   151.88518995920828     
   133.95033911517172     
   88.492118485141958     
   28.333196023292473     
   75.985533513385903     
   24.280489399713570     
   23.896530046336412     
   53.830717698169451     
   29.178954943190575     
   284.27424237865301     
   22.655199206965921     
   22.239865236069644     
   197.09747775190615     
   24.456462691586669     
   189.67074243969537     
   53.822276042823177     
   116.97539940175385     
   28.650097929891558     
   129.30112591684468     
   132.03846008655714     
   124.24267578408508     
   191.98966374360521     
   23.093576807315056     
   110.89332911791450     
   62.707570090414229     
   63.822481071436052     
   246.72163960359777     
   66.230394100213829     
   278.13038397867012     
   42.074603912293156     
   45.885361269536382     
   52.285381477629350     
   162.80021933975223     
   289.19665747229004     
   30.675962638374362     
   139.36424183133789     
   242.42911634877049     
   20.000001997487360     
   47.549988211588612     
   50.168767891611132     
   285.92191650753017     
   20.000009151605205     
   20.000002874132608     
   39.748046733990094     
   23.687006387516846     
   55.885708606790445     
   95.310400359154784     
   418.01019633371482     
   291.78975085999963     
   204.00340427860769     
   233.87899739316921     
   117.97965376561743     
   70.373253912431167     
   44.411081397060642     
   31.094932243329133     
   24.702290317464840     
   21.838663942908500     
   20.672033048061977     
   20.226061734040545     
   20.070427253313390     
   20.020147726617097     
   20.005330083764829     
   20.001275522816002     
   20.000291131978837     
   20.000059514360778     
   20.000011374228134     
   20.000006427542832     
   20.000003600060776     
   20.000005161936137     
   20.000001096014969     
   20.000001586190120     
   20.000000172458915     
   20.000000024888916     
   20.000000003295426     
   20.000000000405066     
   20.000001634539718     
   20.000000000192060     
   20.000000001659252     
   20.000000013167156     
   20.000000096887685     
   20.000000652302226     
   20.000002220966554     
   20.000004025617475     
   20.000002992622488     
   20.000007264823992     
   20.000005430528180     
   20.000040529139298     
   20.000207179426827     
   20.000975667194925     
   20.004234168009305     
   20.016912517536376     
   20.062186734623925     
   20.210807890297183     
   20.659295508304396     
   21.904583869477268     
   25.091862835647191     
   32.633987257171185     
   49.221266546194890     
   58.048760261378746     
   53.113726626926351     
   69.292756834291836     
   83.107516830704796     
   147.87481425458847     
   264.19716923149929     
   462.18280663504135     
   59.304964008749259     
   156.79190707841795     
   168.35635168994486     
   107.04042732588850     
   20.000000886286465     
   70.662502728454541     
   229.79641145872418     
   38.673592895831000     
   79.079248510036820     
   29.853680268415424     
   20.000001202263153     
   33.290964881993347     
   66.122317206227223     
   204.34972781685073     
   40.947329021113831     
   297.36238495757306     
   28.288836803895578     
   44.830091366617353     
   115.05652918023780     
   80.361927992811886     
   36.182461274229247     
   73.663992675390801     
   31.335497577300735     
   32.034267476144827     
   29.024647644097733     
   38.084600505396651     
   34.260179733468910     
   90.916345687897220     
   233.77285843035375     
   131.48049956977471     
   75.223383373157503     
   31.179720457354193     
   24.598497841451479     
   37.538320110897509     
   75.537215501429955     
   45.890039289258048     
   34.915651213942688     
   43.151973538719574     
   26.117397049713482     
   61.847794202911885     
   27.301442961509739     
   27.523949559832069     
   24.841817611238106     
   26.631618060934287     
   25.874529511705891     
   109.58821848089516     
   27.961169818853421     
   113.28157835025337     
   23.246362141262878     
   25.409480439890075     
   64.022465045375753     
   24.277069265151095     
   21.220570309537500     
   23.438430314003700     
   63.623475528777476     
   56.922754410415735     
   67.490160608828617     
   23.078109496721954     
   21.715236927100815     
   140.44770894893639     
   21.370575408445774     
   169.87600598550026     
   22.533491520538483     
   22.247692870798723     
   20.414477677255135     
   21.463903554791305     
   21.811311408939844     
   160.12337049140601     
   21.301892571337063     
   21.594066149470990     
   21.180133120397382     
   21.292937139005499     
   20.473678607418336     
   21.122515454518208     
   20.590658179249221     
   20.913399640887789     
   20.790799305901292     
   20.640020025883977     
   20.128644741337141     
   20.396259633447478     
   20.548702528758522     
   20.439945475318382     
   20.376979399856634     
   20.151427837682469     
   20.188922923010463     
   20.302511720998577     
   20.258524260505332     
   20.205970910612944     
   20.037476687485924     
   20.122742318040906     
   20.174379370558906     
   20.137614899337127     
   20.116510912669806     
   20.043954606382638     
   20.056408230152364     
   20.092279253595191     
   20.077783699819815     
   20.061275106345740     
   20.009956241229954     
   20.035097678650729     
   20.051155658106904     
   20.039933059625071     
   20.033334230477781     
   20.012094363664271     
   20.015392556523867     
   20.026020593559338     