# vtk DataFile Version 2.0
 temperature
 ASCII
 DATASET UNSTRUCTURED_GRID
 POINTS         773  double
   0.0000000000000000        0.0000000000000000        0.0000000000000000     
   3.5000000000000000        0.0000000000000000        0.0000000000000000     
   3.5000000000000000        40.000000000000000        0.0000000000000000     
   0.0000000000000000        40.000000000000000        0.0000000000000000     
  0.43750000000000000        0.0000000000000000        0.0000000000000000     
  0.87500000000000000        0.0000000000000000        0.0000000000000000     
   1.3125000000000000        0.0000000000000000        0.0000000000000000     
   1.7500000000000000        0.0000000000000000        0.0000000000000000     
   2.1875000000000000        0.0000000000000000        0.0000000000000000     
   2.6250000000000000        0.0000000000000000        0.0000000000000000     
   3.0625000000000000        0.0000000000000000        0.0000000000000000     
   3.5000000000000000       0.50000000000000000        0.0000000000000000     
   3.5000000000000000        1.0000000000000000        0.0000000000000000     
   3.5000000000000000        1.5000000000000000        0.0000000000000000     
   3.5000000000000000        2.0000000000000000        0.0000000000000000     
   3.5000000000000000        2.5000000000000000        0.0000000000000000     
   3.5000000000000000        3.0000000000000000        0.0000000000000000     
   3.5000000000000000        3.5000000000000000        0.0000000000000000     
   3.5000000000000000        4.0000000000000000        0.0000000000000000     
   3.5000000000000000        4.5000000000000000        0.0000000000000000     
   3.5000000000000000        5.0000000000000000        0.0000000000000000     
   3.5000000000000000        5.5000000000000000        0.0000000000000000     
   3.5000000000000000        6.0000000000000000        0.0000000000000000     
   3.5000000000000000        6.5000000000000000        0.0000000000000000     
   3.5000000000000000        7.0000000000000000        0.0000000000000000     
   3.5000000000000000        7.5000000000000000        0.0000000000000000     
   3.5000000000000000        8.0000000000000000        0.0000000000000000     
   3.5000000000000000        8.5000000000000000        0.0000000000000000     
   3.5000000000000000        9.0000000000000000        0.0000000000000000     
   3.5000000000000000        9.5000000000000000        0.0000000000000000     
   3.5000000000000000        10.000000000000000        0.0000000000000000     
   3.5000000000000000        10.500000000000000        0.0000000000000000     
   3.5000000000000000        11.000000000000000        0.0000000000000000     
   3.5000000000000000        11.500000000000000        0.0000000000000000     
   3.5000000000000000        12.000000000000000        0.0000000000000000     
   3.5000000000000000        12.500000000000000        0.0000000000000000     
   3.5000000000000000        13.000000000000000        0.0000000000000000     
   3.5000000000000000        13.500000000000000        0.0000000000000000     
   3.5000000000000000        14.000000000000000        0.0000000000000000     
   3.5000000000000000        14.500000000000000        0.0000000000000000     
   3.5000000000000000        15.000000000000000        0.0000000000000000     
   3.5000000000000000        15.500000000000000        0.0000000000000000     
   3.5000000000000000        16.000000000000000        0.0000000000000000     
   3.5000000000000000        16.500000000000000        0.0000000000000000     
   3.5000000000000000        17.000000000000000        0.0000000000000000     
   3.5000000000000000        17.500000000000000        0.0000000000000000     
   3.5000000000000000        18.000000000000000        0.0000000000000000     
   3.5000000000000000        18.500000000000000        0.0000000000000000     
   3.5000000000000000        19.000000000000000        0.0000000000000000     
   3.5000000000000000        19.500000000000000        0.0000000000000000     
   3.5000000000000000        20.000000000000000        0.0000000000000000     
   3.5000000000000000        20.500000000000000        0.0000000000000000     
   3.5000000000000000        21.000000000000000        0.0000000000000000     
   3.5000000000000000        21.500000000000000        0.0000000000000000     
   3.5000000000000000        22.000000000000000        0.0000000000000000     
   3.5000000000000000        22.500000000000000        0.0000000000000000     
   3.5000000000000000        23.000000000000000        0.0000000000000000     
   3.5000000000000000        23.500000000000000        0.0000000000000000     
   3.5000000000000000        24.000000000000000        0.0000000000000000     
   3.5000000000000000        24.500000000000000        0.0000000000000000     
   3.5000000000000000        25.000000000000000        0.0000000000000000     
   3.5000000000000000        25.500000000000000        0.0000000000000000     
   3.5000000000000000        26.000000000000000        0.0000000000000000     
   3.5000000000000000        26.500000000000000        0.0000000000000000     
   3.5000000000000000        27.000000000000000        0.0000000000000000     
   3.5000000000000000        27.500000000000000        0.0000000000000000     
   3.5000000000000000        28.000000000000000        0.0000000000000000     
   3.5000000000000000        28.500000000000000        0.0000000000000000     
   3.5000000000000000        29.000000000000000        0.0000000000000000     
   3.5000000000000000        29.500000000000000        0.0000000000000000     
   3.5000000000000000        30.000000000000000        0.0000000000000000     
   3.5000000000000000        30.500000000000000        0.0000000000000000     
   3.5000000000000000        31.000000000000000        0.0000000000000000     
   3.5000000000000000        31.500000000000000        0.0000000000000000     
   3.5000000000000000        32.000000000000000        0.0000000000000000     
   3.5000000000000000        32.500000000000000        0.0000000000000000     
   3.5000000000000000        33.000000000000000        0.0000000000000000     
   3.5000000000000000        33.500000000000000        0.0000000000000000     
   3.5000000000000000        34.000000000000000        0.0000000000000000     
   3.5000000000000000        34.500000000000000        0.0000000000000000     
   3.5000000000000000        35.000000000000000        0.0000000000000000     
   3.5000000000000000        35.500000000000000        0.0000000000000000     
   3.5000000000000000        36.000000000000000        0.0000000000000000     
   3.5000000000000000        36.500000000000000        0.0000000000000000     
   3.5000000000000000        37.000000000000000        0.0000000000000000     
   3.5000000000000000        37.500000000000000        0.0000000000000000     
   3.5000000000000000        38.000000000000000        0.0000000000000000     
   3.5000000000000000        38.500000000000000        0.0000000000000000     
   3.5000000000000000        39.000000000000000        0.0000000000000000     
   3.5000000000000000        39.500000000000000        0.0000000000000000     
   3.0625000000000000        40.000000000000000        0.0000000000000000     
   2.6250000000000000        40.000000000000000        0.0000000000000000     
   2.1875000000000000        40.000000000000000        0.0000000000000000     
   1.7500000000000000        40.000000000000000        0.0000000000000000     
   1.3125000000000000        40.000000000000000        0.0000000000000000     
  0.87500000000000000        40.000000000000000        0.0000000000000000     
  0.43750000000000000        40.000000000000000        0.0000000000000000     
   0.0000000000000000        39.500000000000000        0.0000000000000000     
   0.0000000000000000        39.000000000000000        0.0000000000000000     
   0.0000000000000000        38.500000000000000        0.0000000000000000     
   0.0000000000000000        38.000000000000000        0.0000000000000000     
   0.0000000000000000        37.500000000000000        0.0000000000000000     
   0.0000000000000000        37.000000000000000        0.0000000000000000     
   0.0000000000000000        36.500000000000000        0.0000000000000000     
   0.0000000000000000        36.000000000000000        0.0000000000000000     
   0.0000000000000000        35.500000000000000        0.0000000000000000     
   0.0000000000000000        35.000000000000000        0.0000000000000000     
   0.0000000000000000        34.500000000000000        0.0000000000000000     
   0.0000000000000000        34.000000000000000        0.0000000000000000     
   0.0000000000000000        33.500000000000000        0.0000000000000000     
   0.0000000000000000        33.000000000000000        0.0000000000000000     
   0.0000000000000000        32.500000000000000        0.0000000000000000     
   0.0000000000000000        32.000000000000000        0.0000000000000000     
   0.0000000000000000        31.500000000000000        0.0000000000000000     
   0.0000000000000000        31.000000000000000        0.0000000000000000     
   0.0000000000000000        30.500000000000000        0.0000000000000000     
   0.0000000000000000        30.000000000000000        0.0000000000000000     
   0.0000000000000000        29.500000000000000        0.0000000000000000     
   0.0000000000000000        29.000000000000000        0.0000000000000000     
   0.0000000000000000        28.500000000000000        0.0000000000000000     
   0.0000000000000000        28.000000000000000        0.0000000000000000     
   0.0000000000000000        27.500000000000000        0.0000000000000000     
   0.0000000000000000        27.000000000000000        0.0000000000000000     
   0.0000000000000000        26.500000000000000        0.0000000000000000     
   0.0000000000000000        26.000000000000000        0.0000000000000000     
[...]
 CELL_DATA        1368
 SCALARS T double
 LOOKUP_TABLE default
   20.100887946661544     
   21.219086968274802     
   1666.6647931939488     
   32.449646227663727     
   20.000000000027537     
   20.258437000599692     
   1270.9581612278371     
   20.223589680389477     
   20.004727474831650     
   20.175421624043171     
   20.009132925817166     
   27.871808392601320     
   20.147050050402225     
   33.545469853434966     
   28.683182514628502     
   1203.7085869648879     
   1667.5826322827663     
   20.025564439070273     
   20.021402174001384     
   20.440899321794163     
   20.016530461625745     
   20.000290092757549     
   1729.5145471784695     
   20.000608767664303     
   20.082516946849896     
   21.277843882814711     
   20.013082258119347     
   20.317885572965032     
   20.115328647187681     
   20.005803334505519     
   20.463325722474480     
   20.000000000067779     
   21.016288520879424     
   21.361897405170101     
   21.407610867725868     
   20.000000000051983     
   20.045575897775116     
   20.001873511920188     
   20.010648975396400     
   20.001534569188578     
   20.000868351698450     
   20.152629330014026     
   20.001148002887394     
   32.194987744219667     
   20.032181629863381     
   393.16211015895897     
   386.08493229522134     
   20.116510244252424     
   20.170736443880376     
   679.14636889648978     
   682.01724111589715     
   20.007206758873497     
   20.048937713234032     
   20.000000000047894     
   1702.2877525310860     
   20.000000000038764     
   20.000000000190155     
   20.000224661138343     
   20.000106734600060     
   20.000371795609464     
   20.000000000281592     
   31.492726985527757     
   20.000710456719709     
   20.000000000802398     
   20.361660791124883     
   20.502841537765804     
   20.003481394767576     
   20.505955160658640     
   20.010120549227448     
   20.015514854439086     
   20.000000000139895     
   1669.4607454611198     
   20.000000000386951     
   20.014016418580926     
   20.002390624777178     
   20.003886419060905     
   20.000000001490402     
   20.000000006005120     
   20.000000000099892     
   367.98863642842468     
   20.000467243737578     
   20.000088118275137     
   208.68331553916789     
   20.000035849000547     
   119.11110954753782     
   20.036385970369178     
   20.053639346864337     
   364.38136536304023     
   20.000172671869876     
   845.24819700702028     
   20.000649848627866     
   20.001060945692732     
   43.183056665060711     
   20.000000041652150     
   789.38867501971208     
   20.000008466497167     
   30.216381154330971     
   20.000000010823239     
   20.000012373164807     
   20.000000002187690     
   207.30497968780460     
   20.000000001106159     
   189.78328870033710     
   191.51111112759904     
   20.000942958116052     
   20.000143633183452     
   20.000000000097266     
   20.004020865485550     
   20.000000000072010     
   20.000000002899593     
   22.700645993362190     
   483.34032153806010     
   21.886739938836893     
   20.000003554801882     
   20.000000000570751     
   20.000000000028045     
   111.67914496662870     
   20.687149286416787     
   112.33715646132782     
   20.000000837330735     
   20.000000001109569     
   20.000003186787893     
   20.000072019715727     
   118.37705669931891     
   20.234116350686282     
   267.25865757702428     
   20.002725889846783     
   20.004148195378153     
   20.000048768471135     
   20.056407880646852     
   20.000000000140304     
   20.000004842367382     
   492.92276201888035     
   20.073616761790966     
   20.000000008151535     
   20.000000073700075     
   20.021367926965759     
   67.463436376408552     
   1311.2753829990750     
   67.738683957868744     
   996.97608010583531     
   459.73677177335736     
   152.95581037551909     
   20.000006222903430     
   20.000028545964856     
   20.000000722873473     
   482.03509976747210     
   20.000016618450413     
   20.000000004327532     
   20.000000008200907     
   20.000000821565422     
   270.63389363271057     
   20.000024974050053     
   43.195878886127737     
   43.248726083611956     
   20.000000015657939     
   20.000000627294039     
   87.766753487593618     
   20.000063483960410     
   20.000000055499708     
   20.000000020619240     
   20.000000000554358     
   29.974160989482133     
   42.969676883574699     
   20.000240693219915     
   20.370348228286502     
   20.000000056079120     
   20.000000000025178     
   219.09562172119647     
   154.75627054250671     
   20.000002303833060     
   20.000000260177231     
   20.000000030133361     
   30.129909194534473     
   34.914227147901286     
   20.000000439502465     
   1000.5828478221218     
   20.038643429607863     
   88.449010869091325     
   20.000000105094305     
   137.58296323369552     
   130.38577526035311     
   26.351518359927407     
   20.000000135679453     
   25.722747897635490     
   20.000001009270736     
   20.000053601067279     
   20.000090690488793     
   40.958967965417209     
   20.000000000093568     
   233.18659771369596     
   20.002934995289504     
   21.837072189265353     
   21.814489094130373     
   22.858244751448808     
   20.000000000042949     
   558.89461840881393     
   20.000001414315960     
   20.000000000084345     
   20.000000195217538     
   21.846990677281333     
   20.000000358589226     
   81.751558780844519     
   20.000018586310539     
   20.000031675661734     
   20.000002712020105     
   77.745436738504949     
   20.874402736032732     
   20.000000249471544     
   20.000000000113612     
   20.000000457823631     
   20.000000000257526     
   21.069167730139597     
   20.000000000037467     
   20.000003481520945     
   20.000000141714356     
   20.000008322769780     
   20.000020986140811     
   20.004434352046800     
   20.000000648315858     
   20.672264376637735     
   20.000000000128608     
   20.000052387348486     
   39.398569159548806     
   20.000010764058366     
   35.142437428714743     
   20.000010702397592     
   20.000000076681850     
   20.000000000066244     
   20.000000103311223     
   20.000001540752049     
   20.000000000187960     
   20.228732962447392     
   20.000000004199826     
   20.375329605513748     
   20.000000055898038     
   20.000042518267623     
   20.000000000073420     
   20.071873264496116     
   20.000053994110310     
   24.839579210590895     
   26.427669395516382     
   294.39429183016301     
   20.101951697990589     
   38.374878452656034     
   50.731956089389172     
   1423.3257002177086     
   48.652092658007497     
   20.020860151857651     
   20.000000041125254     
   20.000000011507083     
   20.000201983476181     
   20.000001511668255     
   20.122270346057078     
   1503.2430066660261     
   20.000000008228909     
   20.000000029901145     
   20.000000188913180     
   20.000253009715308     
   20.000001947847799     
   20.000000000306894     
   713.18584281085589     
   552.30902464808412     
   20.000888493160215     
   20.000101427305456     
   20.000009723845604     
   20.036917863452906     
   20.000000000248200     
   20.001099234431006     
   1447.6574430027383     
   22.929778767575026     
   20.008955058597401     
   20.000001083596150     
   20.000002008339234     
   20.000001117633897     
   20.000000000283261     
   20.003625134677048     
   20.000000000258105     
   1362.9929808067109     
   1183.9827404207829     
   20.000000000025324     
   1235.3445983253321     
   20.000000000349555     
   20.004429226059084     
   1352.1234938959249     
   20.000082206057375     
   24.364576918270547     
   847.83329219746099     
   1374.2123226391652     
   20.000000001979689     
   21.101848422041858     
   20.000000000050900     
   20.000000021970052     
   20.000001116923741     
   20.000002020047003     
   20.000000006021153     
   20.000000000105519     
   20.000000002185658     
   20.000000000087240     
   899.08400306169415     
   20.387034918574319     
   20.000000015726453     
   629.72982943090187     
   20.000000000076575     
   20.000000004254492     
   20.126215092357953     
   20.038125498129556     
   20.000000000029335     
   20.000000000052996     
   1156.7333041857178     
   20.000000000201016     
   1276.3468122145057     
   1048.5039638546411     
   20.000001796655447     
   20.000001301632530     
   1462.7458800378490     
   24.055775796061578     
   299.83122382030859     
   20.000580670733722     
   20.000000000090267     
   20.000000000050221     
   20.000000000282686     
   754.33892943279557     
   20.000000401358186     
   20.000000000164459     
   20.000000029523957     
   20.000000309576986     
   20.000024905121236     
   1300.1269920308416     
   752.61978406262813     
   20.000000000101014     
   20.000000000203304     
   35.684018831326341     
   1174.8806223686520     
   20.000000341026880     
   20.000000000566356     
   1196.6229635684708     
   1267.0237930243777     
   20.000031356879280     
   20.000004781048045     
   982.27320026200277     
   20.000000000170864     
   20.000000002314934     
   20.000000000821849     
   20.000000001182023     
   885.71556845788859     
   20.000006096132275     
   20.000000001601897     
   20.000000002643802     
   23.379058653313024     
   22.399801206171734     
   20.000000000788539     
   20.000000000153218     
   20.000060538231324     
   20.000000000405173     
   1116.9565310872440     
   20.000000001536375     
   1012.3275412319841     
   20.000000000516660     
   830.47477189816561     
   20.000000000130282     
   945.57373109126058     
   747.65295008269311     
   1011.5865131023909     
   1186.3148428568391     
   1005.1579602814937     
   20.000000000373195     
   20.000000000143416     
   20.000000000402309     
   846.95514897485884     
   806.15334396909589     
   727.30891583303946     
   701.26097135553539     
   1090.4487706621833     
   628.99898207536955     
   20.000000347594412     
   20.000000000603368     
   20.000000003857323     
   20.000000003141491     
   1220.0429450819518     
   853.01106237870067     
   861.43550067281433     
   932.49503273489074     
   597.31512807622948     
   683.54057969193218     
   20.000000003109708     
   20.000000002181750     
   20.000000018591180     
   516.46535597987963     
   793.34068576701907     
   514.76716279483662     
   20.000000005106898     
   20.000000038804242     
   20.000000057249064     
   592.29484867679537     
   436.54331090067853     
   724.88359489274501     
   20.000000016261577     
   567.51577880328125     
   612.59621506082658     
   20.000000004459636     
   20.000000027005569     
   616.96823582810384     
   20.000000105977659     
   20.000000030394304     
   498.56772993879463     
   20.000000072333439     
   20.000000022089502     
   20.000000015727608     
   20.000000121227451     
   527.48153014398633     
   416.64720288300367     
   441.94246501724945     
   20.000000005769003     
   346.88948290750278     
   369.92271431521505     
   20.000000268655597     
   20.000000364390040     
   20.000000008604516     
   20.000000390089891     
   671.86676020577556     
   20.000001176625233     
   20.000001543332402     
   20.000002117628934     
   20.000000513036742     
   270.80027116850323     
   20.000000890844188     
   20.000000659053693     
   360.18641622581691     
   20.000002140414253     
   20.000001190287499     
   20.000000010926442     
   20.000004085076380     
   20.000003541711809     
   20.000002498027630     
   20.000006587074694     
   20.000001601641387     
   20.000019862898544     
   20.000025554808740     
   20.000099356805350     
   20.000058441126093     
   20.000045105006400     
   20.000076353189918     
   20.000163727523180     
   20.000728587172265     
   20.000213587767153     
   20.000165136690537     
   20.000453717042529     
   20.000274923512475     
   20.003007749471777     
   20.000938178856174     
   20.000734683765046     
   20.001921264023814     
   20.001192723907469     
   20.001600698764534     
   20.000352692996124     
   20.002545706509540     
   20.001881142468683     
   20.001191938433063     
   20.000997324121393     
   20.011464391313847     
   20.003822877195162     
   20.003032085663303     
   20.007547146576456     
   20.004800145911936     
   20.001510988293433     
   345.93139584836871     
   20.040715015812673     
   20.014461380891579     
   20.011589656364386     
   20.027341378428737     
   20.017814540309224     
   20.006005504336692     
   20.033942110999337     
   20.024986985099819     
   20.014256845764287     
   20.021788001649927     
   20.134122521512875     
   20.050664786291058     
   20.041136990651911     
   20.092310979776030     
   20.061866481653016     
   20.022148942067162     
   20.016725719898350     
   20.410485254763056     
   20.164756414124671     
   20.135466533798876     
   20.289273988940170     
   20.198766850131737     
   20.075662101414395     
   20.321086274757757     
   20.247144597405264     
   20.151295059517015     
   20.220269499658812     
   21.167838898679168     
   20.497759946978984     
   20.414407537618590     
   20.843532493496923     
   20.592038021814776     
   20.240052359555914     
   204.10825004847723     
   233.21878796397976     
   215.98670384415988     
   20.173132697551029     
   21.638506154138234     
   104.42824898262019     
   250.36150384102731     
   111.31777559417864     
   99.481924433488459     
   117.79184723242903     
   23.092920034254647     
   240.29039567553994     
   198.69550925802506     
   257.34787469478607     
   21.398687311074585     
   21.178637332069769     
   53.176964027647884     
   193.94497624975619     
   92.970360079826051     
   50.587091929338790     
   113.75567217783566     
   20.707907206143947     
   83.066823567261380     
   206.77977196620265     
   21.948181208289949     
   22.289832979381629     
   282.51737012500371     
   162.19403593483108     
   143.58701735695314     
   96.063927937499898     
   30.439117088328867     
   82.147359104755310     
   25.698772621154411     
   25.191879559474181     
   58.880931363479668     
   31.396275120858736     
   295.04151168823995     
   23.654549933670324     
   23.119000368260483     
   208.22385034565639     
   25.874467877450929     
   200.31588146071087     
   59.178596467427838     
   125.13523843269849     
   30.733059243164561     
   138.53563677294369     
   140.83828476628074     
   133.68602976014546     
   201.16827412756649     
   24.211813021837301     
   119.70287653051240     
   69.076339056944903     
   70.006889771555905     
   257.82327688985987     
   71.694757509951344     
   289.70747497755173     
   45.751567883775678     
   50.215970832981341     
   57.394668948985021     
   173.24970362639075     
   301.29724648066224     
   33.241894225267643     
   148.73777392203681     
   249.02268618023882     
   20.000007594849912     
   52.158767150746492     
   55.226214656175806     
   293.05002004545986     
   20.000031086330502     
   20.000010687050082     
   43.627378187761771     
   24.960329385564396     
   61.245350818046347     
   103.10062208372487     
   423.69625671698338     
   298.25266325412065     
   210.70132765795358     
   241.08808760467019     
   124.01861157534745     
   75.190192427198099     
   47.813644006641468     
   33.250593797090765     
   25.935157860667843     
   22.471386847116364     
   20.969449223117429     
   20.352563926810699     
   20.119711323727735     
   20.037606128389225     
   20.011000736188656     
   20.002934120725914     
   20.000751209573572     
   20.000173524760736     
   20.000037758572589     
   20.000022309428640     
   20.000013066062913     
   20.000018329499134     
   20.000004365808763     
   20.000006178763559     
   20.000000794583432     
   20.000000133424368     
   20.000000020702551     
   20.000000002999609     
   20.000006680810092     
   20.000000001597421     
   20.000000011649579     
   20.000000078588442     
   20.000000494363615     
   20.000002866190492     
   20.000008864230889     
   20.000015334748351     
   20.000011664752972     
   20.000026424545503     
   20.000020201956470     
   20.000128914935388     
   20.000580434563759     
   20.002424346161877     
   20.009397377861582     
   20.033769654585150     
   20.112533159745801     
   20.348298877166844     
   21.002039691387967     
   22.683180670725548     
   26.700472620252917     
   35.651718137313622     
   54.348680698672069     
   64.026422511304602     
   58.625173414266960     
   76.188747850024669     
   90.946009541434861     
   158.58226564694237     
   277.10672347224551     
   475.64444128417813     
   65.186954286932490     
   166.78243438121405     
   178.40557561916793     
   115.46848218524575     
   20.000003800660284     
   77.408694232276233     
   240.98591844318503     
   42.346184076175049     
   86.034943601886567     
   32.340329479241902     
   20.000005035175313     
   36.325596232357398     
   72.257261929512367     
   215.00639376996114     
   44.853535702013389     
   308.74811980676452     
   30.483387985520167     
   49.213268535292855     
   123.66029947992747     
   87.035444626111854     
   39.509088075952150     
   80.386249547806230     
   33.924402132161156     
   34.785384585087073     
   31.296852268448330     
   41.824036011005688     
   37.364475296354335     
   98.255324395321978     
   244.20683275810197     
   139.58962200184166     
   82.534088616332184     
   33.866190053550596     
   25.994888126813663     
   41.167205701391445     
   82.067458089141283     
   50.471673471611581     
   38.162982454785300     
   47.467482028457347     
   27.894543252226608     
   67.749185075515342     
   29.325722675884709     
   29.609415621441489     
   26.315375000416768     
   28.470211571342386     
   27.579009150432917     
   117.15576536959182     
   30.067125412543763     
   120.65719675650017     
   24.373721424186481     
   27.049109786416160     
   69.542558078617489     
   25.636324610515125     
   21.741812083626563     
   24.588649329811119     
   69.418183353332154     
   62.126587898316849     
   73.422831048925531     
   24.146141579001039     
   22.391508314402174     
   149.25053433123549     
   21.935519392126277     
   179.27868906422020     
   23.453026476472946     
   23.095615577294641     
   20.639039709906800     
   22.040643995711733     
   22.527016459965960     
   169.59842646123471     
   21.835183833079007     
   22.248663435692087     
   21.705885987624839     
   21.846906995290276     
   20.721428786692421     
   21.622694904185270     
   20.887730694368145     
   21.337438953858754     
   21.172297301400889     
   20.961274998581320     
   20.215920596524189     
   20.619646511191736     
   20.835264132832659     
   20.678929270093921     
   20.589494640404382     
   20.250497248190779     
   20.308282090528571     
   20.479725375764414     
   20.415593655807900     
   20.335920947696671     
   20.068996673281713     
   20.209210694673569     
   20.288597655594586     
   20.231215719228675     
   20.198595545426283     
   20.079739403641561     
   20.100726831128497     
   20.159708120331221     
   20.136648886626325     
   20.109333939644699     
   20.020254428271155     
   20.065697343208200     
   20.092749184317629     
   20.073580949741434     
   20.062395249707407     
   20.024174943327463     
   20.030293920921803     
   20.049515755234491     