# vtk DataFile Version 2.0
 temperature
 ASCII
 DATASET UNSTRUCTURED_GRID
 POINTS         773  double
   0.0000000000000000        0.0000000000000000        0.0000000000000000     
   3.5000000000000000        0.0000000000000000        0.0000000000000000     
   3.5000000000000000        40.000000000000000        0.0000000000000000     
   0.0000000000000000        40.000000000000000        0.0000000000000000     
  0.43750000000000000        0.0000000000000000        0.0000000000000000     
  0.87500000000000000        0.0000000000000000        0.0000000000000000     
   1.3125000000000000        0.0000000000000000        0.0000000000000000     
   1.7500000000000000        0.0000000000000000        0.0000000000000000     
   2.1875000000000000        0.0000000000000000        0.0000000000000000     
   2.6250000000000000        0.0000000000000000        0.0000000000000000     
   3.0625000000000000        0.0000000000000000        0.0000000000000000     
   3.5000000000000000       0.50000000000000000        0.0000000000000000     
   3.5000000000000000        1.0000000000000000        0.0000000000000000     
   3.5000000000000000        1.5000000000000000        0.0000000000000000     
   3.5000000000000000        2.0000000000000000        0.0000000000000000     
   3.5000000000000000        2.5000000000000000        0.0000000000000000     
   3.5000000000000000        3.0000000000000000        0.0000000000000000     
   3.5000000000000000        3.5000000000000000        0.0000000000000000     
   3.5000000000000000        4.0000000000000000        0.0000000000000000     
   3.5000000000000000        4.5000000000000000        0.0000000000000000     
   3.5000000000000000        5.0000000000000000        0.0000000000000000     
   3.5000000000000000        5.5000000000000000        0.0000000000000000     
   3.5000000000000000        6.0000000000000000        0.0000000000000000     
   3.5000000000000000        6.5000000000000000        0.0000000000000000     
   3.5000000000000000        7.0000000000000000        0.0000000000000000     
   3.5000000000000000        7.5000000000000000        0.0000000000000000     
   3.5000000000000000        8.0000000000000000        0.0000000000000000     
   3.5000000000000000        8.5000000000000000        0.0000000000000000     
   3.5000000000000000        9.0000000000000000        0.0000000000000000     
   3.5000000000000000        9.5000000000000000        0.0000000000000000     
   3.5000000000000000        10.000000000000000        0.0000000000000000     
   3.5000000000000000        10.500000000000000        0.0000000000000000     
   3.5000000000000000        11.000000000000000        0.0000000000000000     
   3.5000000000000000        11.500000000000000        0.0000000000000000     
   3.5000000000000000        12.000000000000000        0.0000000000000000     
   3.5000000000000000        12.500000000000000        0.0000000000000000     
   3.5000000000000000        13.000000000000000        0.0000000000000000     
   3.5000000000000000        13.500000000000000        0.0000000000000000     
   3.5000000000000000        14.000000000000000        0.0000000000000000     
   3.5000000000000000        14.500000000000000        0.0000000000000000     
   3.5000000000000000        15.000000000000000        0.0000000000000000     
   3.5000000000000000        15.500000000000000        0.0000000000000000     
   3.5000000000000000        16.000000000000000        0.0000000000000000     
   3.5000000000000000        16.500000000000000        0.0000000000000000     
   3.5000000000000000        17.000000000000000        0.0000000000000000     
   3.5000000000000000        17.500000000000000        0.0000000000000000     
   3.5000000000000000        18.000000000000000        0.0000000000000000     
   3.5000000000000000        18.500000000000000        0.0000000000000000     
   3.5000000000000000        19.000000000000000        0.0000000000000000     
   3.5000000000000000        19.500000000000000        0.0000000000000000     
   3.5000000000000000        20.000000000000000        0.0000000000000000     
   3.5000000000000000        20.500000000000000        0.0000000000000000     
   3.5000000000000000        21.000000000000000        0.0000000000000000     
   3.5000000000000000        21.500000000000000        0.0000000000000000     
   3.5000000000000000        22.000000000000000        0.0000000000000000     
   3.5000000000000000        22.500000000000000        0.0000000000000000     
   3.5000000000000000        23.000000000000000        0.0000000000000000     
   3.5000000000000000        23.500000000000000        0.0000000000000000     
   3.5000000000000000        24.000000000000000        0.0000000000000000     
   3.5000000000000000        24.500000000000000        0.0000000000000000     
   3.5000000000000000        25.000000000000000        0.0000000000000000     
   3.5000000000000000        25.500000000000000        0.0000000000000000     
   3.5000000000000000        26.000000000000000        0.0000000000000000     
   3.5000000000000000        26.500000000000000        0.0000000000000000     
   3.5000000000000000        27.000000000000000        0.0000000000000000     
   3.5000000000000000        27.500000000000000        0.0000000000000000     
   3.5000000000000000        28.000000000000000        0.0000000000000000     
   3.5000000000000000        28.500000000000000        0.0000000000000000     
   3.5000000000000000        29.000000000000000        0.0000000000000000     
   3.5000000000000000        29.500000000000000        0.0000000000000000     
   3.5000000000000000        30.000000000000000        0.0000000000000000     
   3.5000000000000000        30.500000000000000        0.0000000000000000     
   3.5000000000000000        31.000000000000000        0.0000000000000000     
   3.5000000000000000        31.500000000000000        0.0000000000000000     
   3.5000000000000000        32.000000000000000        0.0000000000000000     
   3.5000000000000000        32.500000000000000        0.0000000000000000     
   3.5000000000000000        33.000000000000000        0.0000000000000000     
   3.5000000000000000        33.500000000000000        0.0000000000000000     
   3.5000000000000000        34.000000000000000        0.0000000000000000     
   3.5000000000000000        34.500000000000000        0.0000000000000000     
   3.5000000000000000        35.000000000000000        0.0000000000000000     
   3.5000000000000000        35.500000000000000        0.0000000000000000     
   3.5000000000000000        36.000000000000000        0.0000000000000000     
   3.5000000000000000        36.500000000000000        0.0000000000000000     
   3.5000000000000000        37.000000000000000        0.0000000000000000     
   3.5000000000000000        37.500000000000000        0.0000000000000000     
   3.5000000000000000        38.000000000000000        0.0000000000000000     
   3.5000000000000000        38.500000000000000        0.0000000000000000     
   3.5000000000000000        39.000000000000000        0.0000000000000000     
   3.5000000000000000        39.500000000000000        0.0000000000000000     
   3.0625000000000000        40.000000000000000        0.0000000000000000     
   2.6250000000000000        40.000000000000000        0.0000000000000000     
   2.1875000000000000        40.000000000000000        0.0000000000000000     
   1.7500000000000000        40.000000000000000        0.0000000000000000     
   1.3125000000000000        40.000000000000000        0.0000000000000000     
  0.87500000000000000        40.000000000000000        0.0000000000000000     
  0.43750000000000000        40.000000000000000        0.0000000000000000     
   0.0000000000000000        39.500000000000000        0.0000000000000000     
   0.0000000000000000        39.000000000000000        0.0000000000000000     
   0.0000000000000000        38.500000000000000        0.0000000000000000     
   0.0000000000000000        38.000000000000000        0.0000000000000000     
   0.0000000000000000        37.500000000000000        0.0000000000000000     
   0.0000000000000000        37.000000000000000        0.0000000000000000     
   0.0000000000000000        36.500000000000000        0.0000000000000000     
   0.0000000000000000        36.000000000000000        0.0000000000000000     
   0.0000000000000000        35.500000000000000        0.0000000000000000     
   0.0000000000000000        35.000000000000000        0.0000000000000000     
   0.0000000000000000        34.500000000000000        0.0000000000000000     
   0.0000000000000000        34.000000000000000        0.0000000000000000     
   0.0000000000000000        33.500000000000000        0.0000000000000000     
   0.0000000000000000        33.000000000000000        0.0000000000000000     
   0.0000000000000000        32.500000000000000        0.0000000000000000     
   0.0000000000000000        32.000000000000000        0.0000000000000000     
   0.0000000000000000        31.500000000000000        0.0000000000000000     
   0.0000000000000000        31.000000000000000        0.0000000000000000     
   0.0000000000000000        30.500000000000000        0.0000000000000000     
   0.0000000000000000        30.000000000000000        0.0000000000000000     
   0.0000000000000000        29.500000000000000        0.0000000000000000     
   0.0000000000000000        29.000000000000000        0.0000000000000000     
   0.0000000000000000        28.500000000000000        0.0000000000000000     
   0.0000000000000000        28.000000000000000        0.0000000000000000     
   0.0000000000000000        27.500000000000000        0.0000000000000000     
   0.0000000000000000        27.000000000000000        0.0000000000000000     
   0.0000000000000000        26.500000000000000        0.0000000000000000     
   0.0000000000000000        26.000000000000000        0.0000000000000000     
[...]
 CELL_DATA        1368
 SCALARS T double
 LOOKUP_TABLE default
   20.016164101295750     
   20.340815162787010     
   1655.9574348176327     
   26.609757873119381     
   20.000000000000000     
   20.051076285879500     
   1261.5875862089542     
   20.041979655581560     
   20.000339218657430     
   20.031383020947693     
   20.000772762852044     
   23.597722110161708     
   20.023762312656366     
   27.168569608352779     
   24.074192163321779     
   1194.1362325612270     
   1656.6188578876361     
   20.002740665934127     
   20.002155454526672     
   20.094921617312970     
   20.001576358754676     
   20.000009748547050     
   1721.0741900806347     
   20.000024653560015     
   20.012766145084154     
   20.375284362631270     
   20.001108789737906     
   20.065505051679629     
   20.018490102194104     
   20.000434406812438     
   20.105142783956225     
   20.000000000000000     
   20.273373372270942     
   20.394603252471541     
   20.426413664472207     
   20.000000000000000     
   20.005398720694217     
   20.000099154442836     
   20.000903694846802     
   20.000075780409293     
   20.000035210021469     
   20.025910233549642     
   20.000053236876333     
   26.138410342540887     
   20.003622448257836     
   349.32523885852657     
   342.94734651213986     
   20.017879479051757     
   20.029002169531800     
   659.62320098153646     
   660.58741044588442     
   20.000582826374394     
   20.006156854182464     
   20.000000000000000     
   1695.1662871698220     
   20.000000000000000     
   20.000000000000000     
   20.000006559686575     
   20.000002732068648     
   20.000013167662665     
   20.000000000000121     
   25.813154316095535     
   20.000028852343195     
   20.000000000000600     
   20.074654763307979     
   20.112955015218688     
   20.000206286710565     
   20.118203156774300     
   20.000809020115732     
   20.001392030674118     
   20.000000000000000     
   1661.0690230427526     
   20.000000000000220     
   20.001259605315948     
   20.000133547062660     
   20.000247207411089     
   20.000000000001499     
   20.000000000008363     
   20.000000000000000     
   323.74853532975055     
   20.000017947225700     
   20.000002099468439     
   170.84635039012355     
   20.000000641643936     
   90.936001785236982     
   20.004099657151986     
   20.006700221124326     
   320.45575648363166     
   20.000004753810597     
   827.82814250390288     
   20.000024629466921     
   20.000045988831030     
   32.316140176466355     
   20.000000000100421     
   772.32210478892307     
   20.000000096481784     
   24.498122539375494     
   20.000000000018133     
   20.000000165301618     
   20.000000000002387     
   169.75046513932907     
   20.000000000001020     
   164.62427366727312     
   165.16027659964183     
   20.000040729657471     
   20.000003918415057     
   20.000000000000000     
   20.000272963164555     
   20.000000000000000     
   20.000000000003418     
   20.964404897993944     
   441.94581633936150     
   20.551949227695022     
   20.000000032245570     
   20.000000000000433     
   20.000000000000000     
   91.107233836547081     
   20.155284829264197     
   91.046723128714262     
   20.000000004659551     
   20.000000000000906     
   20.000000028888092     
   20.000001476111766     
   90.416191291388969     
   20.039949033974807     
   226.92522848036273     
   20.000152683461991     
   20.000260403257318     
   20.000000935501859     
   20.007435275957125     
   20.000000000000000     
   20.000000047293092     
   450.52856015818389     
   20.009242203978257     
   20.000000000012545     
   20.000000000209930     
   20.001924706736087     
   52.730954344631563     
   1300.4246898684755     
   52.574996312801360     
   983.98994362084352     
   434.90544736612185     
   120.85703296662041     
   20.000000065951529     
   20.000000472897920     
   20.000000004411099     
   456.56299202600326     
   20.000000237481853     
   20.000000000005461     
   20.000000000012538     
   20.000000004583537     
   229.69827646205164     
   20.000000382905117     
   33.867256172396843     
   33.749011093838284     
   20.000000000028965     
   20.000000003830092     
   65.404685613399678     
   20.000001412293173     
   20.000000000145722     
   20.000000000041315     
   20.000000000000330     
   25.162831645546287     
   32.201192353795740     
   20.000007577053076     
   20.080577619322774     
   20.000000000147054     
   20.000000000000000     
   193.07767065294945     
   122.18140665019396     
   20.000000019400130     
   20.000000001133902     
   20.000000000066546     
   24.460386343276017     
   27.228933984057942     
   20.000000002485042     
   986.25612881283473     
   20.004637275126097     
   65.814838879867651     
   20.000000000328729     
   114.20747483582434     
   108.13814296949958     
   22.518563272879170     
   20.000000000457259     
   22.411861706407663     
   20.000000006649298     
   20.000001025306496     
   20.000002003627653     
   31.594438076443250     
   20.000000000000000     
   205.86440854452235     
   20.000176059831233     
   20.609968655530903     
   20.597128488089247     
   20.943801308300682     
   20.000000000000000     
   534.75261460922616     
   20.000000011049565     
   20.000000000000000     
   20.000000000724441     
   20.540334240636774     
   20.000000001573913     
   64.300753461011396     
   20.000000265725827     
   20.000000524426984     
   20.000000021050102     
   61.250331269602356     
   20.232500730419911     
   20.000000000994707     
   20.000000000000000     
   20.000000002157822     
   20.000000000000000     
   20.275603006633990     
   20.000000000000000     
   20.000000029091872     
   20.000000000522849     
   20.000000088014726     
   20.000000324694867     
   20.000295054030630     
   20.000000003351548     
   20.151910136210809     
   20.000000000000000     
   20.000001083139381     
   30.556739952868149     
   20.000000132525170     
   27.336155384085309     
   20.000000121927492     
   20.000000000238849     
   20.000000000000000     
   20.000000000353456     
   20.000000010968431     
   20.000000000000000     
   20.038999480559848     
   20.000000000005382     
   20.073864725452893     
   20.000000000161329     
   20.000000704873287     
   20.000000000000000     
   20.009014230283668     
   20.000000960705798     
   21.963966586974440     
   22.545185598439588     
   261.84050295648984     
   20.015535631783308     
   30.255348256428270     
   39.251845734170665     
   1410.6384073602746     
   37.859844738430965     
   20.001878488386545     
   20.000000000107885     
   20.000000000021213     
   20.000005139720397     
   20.000000009976024     
   20.017920829151802     
   1488.5497403293623     
   20.000000000013987     
   20.000000000072657     
   20.000000000763084     
   20.000006882342426     
   20.000000013871205     
   20.000000000000373     
   682.53099658706037     
   530.29634432243279     
   20.000033933647462     
   20.000002411674277     
   20.000000119909267     
   20.003932406247600     
   20.000000000000114     
   20.000044709920040     
   1433.9183432691243     
   20.966124346678043     
   20.000712333151910     
   20.000000006564854     
   20.000000016912093     
   20.000000008001155     
   20.000000000000369     
   20.000203217532924     
   20.000000000000288     
   1341.2953066992582     
   1178.4206976972007     
   20.000000000000000     
   1216.0547943942256     
   20.000000000000394     
   20.000263423145910     
   1335.0779133519616     
   20.000001819443625     
   21.826284568934895     
   825.60075687012329     
   1356.3130595795258     
   20.000000000002359     
   20.283885225313302     
   20.000000000000000     
   20.000000000048480     
   20.000000007363745     
   20.000000015681110     
   20.000000000009301     
   20.000000000000057     
   20.000000000002622     
   20.000000000000000     
   874.83464492698806     
   20.076108076579921     
   20.000000000032014     
   598.83919783187480     
   20.000000000000000     
   20.000000000006018     
   20.018484252602381     
   20.004057634158169     
   20.000000000000000     
   20.000000000000000     
   1134.2179585695135     
   20.000000000000263     
   1261.3241394827221     
   1024.1127571882548     
   20.000000013895601     
   20.000000009353670     
   1444.3128601595026     
   21.665140102364504     
   268.08952959624878     
   20.000021950093650     
   20.000000000000000     
   20.000000000000000     
   20.000000000000213     
   726.53393432354233     
   20.000000002083382     
   20.000000000000099     
   20.000000000065128     
   20.000000001474728     
   20.000000356371924     
   1279.2730034626577     
   740.24073525355561     
   20.000000000000050     
   20.000000000000114     
   28.437605408619376     
   1146.9106709835398     
   20.000000001621661     
   20.000000000000586     
   1178.5013806591014     
   1241.9588166998622     
   20.000000480467740     
   20.000000043393236     
   954.82901148161864     
   20.000000000000007     
   20.000000000003105     
   20.000000000000785     
   20.000000000001389     
   856.87402649602166     
   20.000000059464689     
   20.000000000001791     
   20.000000000003432     
   21.222082401238964     
   20.846507720756325     
   20.000000000000867     
   20.000000000000156     
   20.000001251505264     
   20.000000000000323     
   1090.4889668827859     
   20.000000000001926     
   983.74655585680330     
   20.000000000000497     
   798.87205745341441     
   20.000000000000082     
   913.95278841188531     
   715.15597967653764     
   988.67832836996672     
   1162.8710917234346     
   971.75098835089091     
   20.000000000000110     
   20.000000000000160     
   20.000000000000480     
   819.88098503998606     
   770.63631149897594     
   690.85238198665138     
   666.38744874719066     
   1059.5731217320867     
   593.79043468059763     
   20.000000001803251     
   20.000000000000604     
   20.000000000005503     
   20.000000000004061     
   1206.1469124144362     
   815.10684145143694     
   828.36139664853579     
   896.70614334509651     
   564.17249623300472     
   645.15757839493608     
   20.000000000003560     
   20.000000000002267     
   20.000000000041418     
   471.83486888755255     
   753.66554048098658     
   470.59535305759039     
   20.000000000007969     
   20.000000000112461     
   20.000000000180506     
   555.16668605477230     
   402.45981060571700     
   683.70092846866498     
   20.000000000036227     
   523.25696006837188     
   573.82497375479079     
   20.000000000006999     
   20.000000000065619     
   573.60772719564739     
   20.000000000395989     
   20.000000000080469     
   460.00001566211091     
   20.000000000248825     
   20.000000000044704     
   20.000000000028972     
   20.000000000453081     
   490.51224933114531     
   377.36823277717247     
   404.11675779958500     
   20.000000000009887     
   307.91988042875164     
   331.88498780583654     
   20.000000001084427     
   20.000000001601524     
   20.000000000016087     
   20.000000001844029     
   629.36927505639358     
   20.000000007170183     
   20.000000010169732     
   20.000000015186309     
   20.000000002640711     
   243.71184175632845     
   20.000000005005752     
   20.000000003412396     
   319.67924461554435     
   20.000000015339399     
   20.000000007253789     
   20.000000000022304     
   20.000000040298641     
   20.000000034897482     
   20.000000022844251     
   20.000000064626100     
   20.000000010585122     
   20.000000264358167     
   20.000000365731513     
   20.000002052900328     
   20.000001043601383     
   20.000000749381915     
   20.000001466073652     
   20.000003893994926     
   20.000026103775241     
   20.000005441493297     
   20.000003924314228     
   20.000014229389855     
   20.000007514669541     
   20.000158762011147     
   20.000035871334752     
   20.000026300180295     
   20.000089449121763     
   20.000048747542149     
   20.000084500835790     
   20.000010313853078     
   20.000152763627071     
   20.000106235481489     
   20.000059278244368     
   20.000046250577640     
   20.000870488862663     
   20.000214521786859     
   20.000159906599503     
   20.000509985796814     
   20.000286846566091     
   20.000065826799634     
   303.87203945554131     
   20.004350901667642     
   20.001164259201797     
   20.000879883228816     
   20.002616532352594     
   20.001518838654018     
   20.000381108382104     
   20.004078978763847     
   20.002833130815841     
   20.001360622806136     
   20.002329884697655     
   20.019701423174094     
   20.005717164375344     
   20.004394886221409     
   20.012239759239439     
   20.007371000264587     
   20.002001002337167     
   20.001700482336400     
   20.080938507557036     
   20.025453927470522     
   20.019893077306854     
   20.051886552964067     
   20.032296703917012     
   20.009505603826646     
   20.069834549920110     
   20.051283609923647     
   20.027065593946972     
   20.043476260159157     
   20.301728979982638     
   20.102800933627147     
   20.081680068818542     
   20.199879558448323     
   20.128018070249734     
   20.040962354250947     
   171.76076673744652     
   195.64964251097007     
   184.01868223135125     
   20.032726413119146     
   20.460082728145021     
   81.598942232836094     
   212.58344835250347     
   85.278376349374653     
   75.577324665792162     
   92.733603196837379     
   21.021799785259070     
   209.55320036334479     
   162.69272552513419     
   223.90402886847289     
   20.376989807051313     
   20.304394824603108     
   40.186450337560657     
   158.90663861272270     
   70.003528264584929     
   38.638863285694498     
   87.000348866842245     
   20.160199415061502     
   62.197490766328890     
   178.25190191257377     
   20.571077969016560     
   20.699647324208808     
   242.83630576547222     
   129.87085081853994     
   113.60522559763716     
   73.201919473480203     
   24.888061453441409     
   63.533470631340094     
   22.181769762737133     
   21.982366071496344     
   44.246973653846226     
   25.496903763632595     
   259.60431978748983     
   21.253656378801221     
   21.029691908017305     
   172.66297449068281     
   22.324144743465911     
   166.29166190514718     
   43.797986618736317     
   99.738298842917587     
   25.187679152209196     
   109.80335895887346     
   113.26306971723368     
   104.51331646603070     
   171.47631238133053     
   21.497684542419591     
   92.688966330677729     
   50.616613185794584     
   51.935382748716847     
   221.69252547617600     
   55.335095227925251     
   251.81577723226394     
   35.279014208724440     
   37.889870228326487     
   42.722070444181078     
   140.28481488219293     
   261.69443409651046     
   26.407845883732950     
   119.36335169186454     
   226.98641889680633     
   20.000000094334300     
   39.040980837731745     
   40.835722702639906     
   269.12603137313812     
   20.000000556998749     
   20.000000142711354     
   32.886229311345978     
   21.834502960844986     
   45.715834075705054     
   79.391242346015943     
   404.24489534372742     
   276.46401366448185     
   188.53067046556515     
   217.13325033105090     
   104.69598919378659     
   60.400834545721018     
   37.854458263174095     
   27.271007579853176     
   22.710843772425019     
   20.916986356338974     
   20.284998044987624     
   20.080209736217835     
   20.020534746417848     
   20.004748579786899     
   20.000999823748437     
   20.000187170271534     
   20.000032944111830     
   20.000005111470241     
   20.000000729107086     
   20.000000372669177     
   20.000000188803011     
   20.000000284332884     
   20.000000046620723     
   20.000000070937539     
   20.000000005289774     
   20.000000000543505     
   20.000000000050431     
   20.000000000004345     
   20.000000065587162     
   20.000000000001489     
   20.000000000019689     
   20.000000000225857     
   20.000000002362178     
   20.000000022244585     
   20.000000094016023     
   20.000000189261495     
   20.000000133608474     
   20.000000378955836     
   20.000000269298482     
   20.000002859345340     
   20.000019461348426     
   20.000120181511914     
   20.000673422415325     
   20.003418406268544     
   20.015717548055019     
   20.065545020822455     
   20.248031445459425     
   20.852466012833677     
   22.665887949746782     
   27.603641562400643     
   39.868283949603018     
   46.838824607289830     
   42.923718686966339     
   56.010540068340504     
   67.627136511658534     
   125.23100191252681     
   235.29824199806910     
   430.65621553915963     
   48.148235975645434     
   135.26194586693310     
   146.49075734043214     
   89.622814285249049     
   20.000000031924323     
   57.530720364931540     
   204.78040494830444     
   32.179760033270476     
   65.199239569683286     
   25.783673867369235     
   20.000000045669445     
   28.159201607803574     
   54.178847413649400     
   180.72889229520234     
   33.938174726467892     
   271.28869066012089     
   24.755709638083154     
   36.848538745328788     
   97.081782511275364     
   66.887078862005282     
   30.374811250235961     
   60.413021321934160     
   26.958386034617476     
   27.384179664820241     
   25.302982797276655     
   31.567215013439974     
   28.932766771276825     
   75.921000240999845     
   210.24406508453967     
   113.99958025622973     
   60.973822913703664     
   26.710760230781283     
   22.460312240240864     
   31.214967015112883     
   62.503167526630243     
   37.552264652969455     
   29.342790846273022     
   35.406565975452331     
   23.350316612813220     
   50.503276404144572     
   24.095211844193113     
   24.220486173665822     
   22.587421837167721     
   23.719713275701167     
   23.219460740595736     
   93.612268107866754     
   24.569762944170986     
   97.561605124844121     
   21.610094060410361     
   22.896925974753824     
   53.143928025432658     
   22.232181457550855     
   20.530547877020176     
   21.743171896506745     
   52.339445141413492     
   46.918965206742477     
   55.789802663973788     
   21.527443345464032     
   20.786354216157815     
   121.48224891336140     
   20.610252481473982     
   149.23075226981322     
   21.223616957699601     
   21.059875839982215     
   20.150934233371345     
   20.671506708829487     
   20.829234333614011     
   139.50461309557264     
   20.582115505296272     
   20.711456097845968     
   20.498043327197603     
   20.560721157708805     
   20.177395437210730     
   20.473683112532132     
   20.228001262385423     
   20.374283043025912     
   20.315008763356946     
   20.247437586447134     
   20.038597719578338     
   20.139706475525987     
   20.205712677455193     
   20.159871652330079     
   20.132916622990567     
   20.046962747207200     
   20.060444353014276     
   20.103303108065013     
   20.085576113874911     
   20.065978147310464     
   20.009110611478498     
   20.035555219748364     
   20.054020742717086     
   20.041192388563804     
   20.033749644181224     
   20.011050225597604     
   20.014698566265295     
   20.025819398334264     
   20.021034119670336     
   20.015994822873523     
   20.001929498326152     
   20.008216094892965     
   20.012875945778163     
   20.009689299443401     
   20.007804116987565     
   20.002439340316176     
   20.003215819421012     
   20.005867983336227     