# vtk DataFile Version 2.0
 temperature
 ASCII
 DATASET UNSTRUCTURED_GRID
 POINTS         773  double
   0.0000000000000000        0.0000000000000000        0.0000000000000000     
   3.5000000000000000        0.0000000000000000        0.0000000000000000     
   3.5000000000000000        40.000000000000000        0.0000000000000000     
   0.0000000000000000        40.000000000000000        0.0000000000000000     
  0.43750000000000000        0.0000000000000000        0.0000000000000000     
  0.87500000000000000        0.0000000000000000        0.0000000000000000     
   1.3125000000000000        0.0000000000000000        0.0000000000000000     
   1.7500000000000000        0.0000000000000000        0.0000000000000000     
   2.1875000000000000        0.0000000000000000        0.0000000000000000     
   2.6250000000000000        0.0000000000000000        0.0000000000000000     
   3.0625000000000000        0.0000000000000000        0.0000000000000000     
   3.5000000000000000       0.50000000000000000        0.0000000000000000     
   3.5000000000000000        1.0000000000000000        0.0000000000000000     
   3.5000000000000000        1.5000000000000000        0.0000000000000000     
   3.5000000000000000        2.0000000000000000        0.0000000000000000     
   3.5000000000000000        2.5000000000000000        0.0000000000000000     
   3.5000000000000000        3.0000000000000000        0.0000000000000000     
   3.5000000000000000        3.5000000000000000        0.0000000000000000     
   3.5000000000000000        4.0000000000000000        0.0000000000000000     
   3.5000000000000000        4.5000000000000000        0.0000000000000000     
   3.5000000000000000        5.0000000000000000        0.0000000000000000     
   3.5000000000000000        5.5000000000000000        0.0000000000000000     
   3.5000000000000000        6.0000000000000000        0.0000000000000000     
   3.5000000000000000        6.5000000000000000        0.0000000000000000     
   3.5000000000000000        7.0000000000000000        0.0000000000000000     
   3.5000000000000000        7.5000000000000000        0.0000000000000000     
   3.5000000000000000        8.0000000000000000        0.0000000000000000     
   3.5000000000000000        8.5000000000000000        0.0000000000000000     
   3.5000000000000000        9.0000000000000000        0.0000000000000000     
   3.5000000000000000        9.5000000000000000        0.0000000000000000     
   3.5000000000000000        10.000000000000000        0.0000000000000000     
   3.5000000000000000        10.500000000000000        0.0000000000000000     
   3.5000000000000000        11.000000000000000        0.0000000000000000     
   3.5000000000000000        11.500000000000000        0.0000000000000000     
   3.5000000000000000        12.000000000000000        0.0000000000000000     
   3.5000000000000000        12.500000000000000        0.0000000000000000     
   3.5000000000000000        13.000000000000000        0.0000000000000000     
   3.5000000000000000        13.500000000000000        0.0000000000000000     
   3.5000000000000000        14.000000000000000        0.0000000000000000     
   3.5000000000000000        14.500000000000000        0.0000000000000000     
   3.5000000000000000        15.000000000000000        0.0000000000000000     
   3.5000000000000000        15.500000000000000        0.0000000000000000     
   3.5000000000000000        16.000000000000000        0.0000000000000000     
   3.5000000000000000        16.500000000000000        0.0000000000000000     
   3.5000000000000000        17.000000000000000        0.0000000000000000     
   3.5000000000000000        17.500000000000000        0.0000000000000000     
   3.5000000000000000        18.000000000000000        0.0000000000000000     
   3.5000000000000000        18.500000000000000        0.0000000000000000     
   3.5000000000000000        19.000000000000000        0.0000000000000000     
   3.5000000000000000        19.500000000000000        0.0000000000000000     
   3.5000000000000000        20.000000000000000        0.0000000000000000     
   3.5000000000000000        20.500000000000000        0.0000000000000000     
   3.5000000000000000        21.000000000000000        0.0000000000000000     
   3.5000000000000000        21.500000000000000        0.0000000000000000     
   3.5000000000000000        22.000000000000000        0.0000000000000000     
   3.5000000000000000        22.500000000000000        0.0000000000000000     
   3.5000000000000000        23.000000000000000        0.0000000000000000     
   3.5000000000000000        23.500000000000000        0.0000000000000000     
   3.5000000000000000        24.000000000000000        0.0000000000000000     
   3.5000000000000000        24.500000000000000        0.0000000000000000     
   3.5000000000000000        25.000000000000000        0.0000000000000000     
   3.5000000000000000        25.500000000000000        0.0000000000000000     
   3.5000000000000000        26.000000000000000        0.0000000000000000     
   3.5000000000000000        26.500000000000000        0.0000000000000000     
   3.5000000000000000        27.000000000000000        0.0000000000000000     
   3.5000000000000000        27.500000000000000        0.0000000000000000     
   3.5000000000000000        28.000000000000000        0.0000000000000000     
   3.5000000000000000        28.500000000000000        0.0000000000000000     
   3.5000000000000000        29.000000000000000        0.0000000000000000     
   3.5000000000000000        29.500000000000000        0.0000000000000000     
   3.5000000000000000        30.000000000000000        0.0000000000000000     
   3.5000000000000000        30.500000000000000        0.0000000000000000     
   3.5000000000000000        31.000000000000000        0.0000000000000000     
   3.5000000000000000        31.500000000000000        0.0000000000000000     
   3.5000000000000000        32.000000000000000        0.0000000000000000     
   3.5000000000000000        32.500000000000000        0.0000000000000000     
   3.5000000000000000        33.000000000000000        0.0000000000000000     
   3.5000000000000000        33.500000000000000        0.0000000000000000     
   3.5000000000000000        34.000000000000000        0.0000000000000000     
   3.5000000000000000        34.500000000000000        0.0000000000000000     
   3.5000000000000000        35.000000000000000        0.0000000000000000     
   3.5000000000000000        35.500000000000000        0.0000000000000000     
   3.5000000000000000        36.000000000000000        0.0000000000000000     
   3.5000000000000000        36.500000000000000        0.0000000000000000     
   3.5000000000000000        37.000000000000000        0.0000000000000000     
   3.5000000000000000        37.500000000000000        0.0000000000000000     
   3.5000000000000000        38.000000000000000        0.0000000000000000     
   3.5000000000000000        38.500000000000000        0.0000000000000000     
   3.5000000000000000        39.000000000000000        0.0000000000000000     
   3.5000000000000000        39.500000000000000        0.0000000000000000     
   3.0625000000000000        40.000000000000000        0.0000000000000000     
   2.6250000000000000        40.000000000000000        0.0000000000000000     
   2.1875000000000000        40.000000000000000        0.0000000000000000     
   1.7500000000000000        40.000000000000000        0.0000000000000000     
   1.3125000000000000        40.000000000000000        0.0000000000000000     
  0.87500000000000000        40.000000000000000        0.0000000000000000     
  0.43750000000000000        40.000000000000000        0.0000000000000000     
   0.0000000000000000        39.500000000000000        0.0000000000000000     
   0.0000000000000000        39.000000000000000        0.0000000000000000     
   0.0000000000000000        38.500000000000000        0.0000000000000000     
   0.0000000000000000        38.000000000000000        0.0000000000000000     
   0.0000000000000000        37.500000000000000        0.0000000000000000     
   0.0000000000000000        37.000000000000000        0.0000000000000000     
   0.0000000000000000        36.500000000000000        0.0000000000000000     
   0.0000000000000000        36.000000000000000        0.0000000000000000     
   0.0000000000000000        35.500000000000000        0.0000000000000000     
   0.0000000000000000        35.000000000000000        0.0000000000000000     
   0.0000000000000000        34.500000000000000        0.0000000000000000     
   0.0000000000000000        34.000000000000000        0.0000000000000000     
   0.0000000000000000        33.500000000000000        0.0000000000000000     
   0.0000000000000000        33.000000000000000        0.0000000000000000     
   0.0000000000000000        32.500000000000000        0.0000000000000000     
   0.0000000000000000        32.000000000000000        0.0000000000000000     
   0.0000000000000000        31.500000000000000        0.0000000000000000     
   0.0000000000000000        31.000000000000000        0.0000000000000000     
   0.0000000000000000        30.500000000000000        0.0000000000000000     
   0.0000000000000000        30.000000000000000        0.0000000000000000     
   0.0000000000000000        29.500000000000000        0.0000000000000000     
   0.0000000000000000        29.000000000000000        0.0000000000000000     
   0.0000000000000000        28.500000000000000        0.0000000000000000     
   0.0000000000000000        28.000000000000000        0.0000000000000000     
   0.0000000000000000        27.500000000000000        0.0000000000000000     
   0.0000000000000000        27.000000000000000        0.0000000000000000     
   0.0000000000000000        26.500000000000000        0.0000000000000000     
   0.0000000000000000        26.000000000000000        0.0000000000000000     
[...]
 CELL_DATA        1368
 SCALARS T double
 LOOKUP_TABLE default
   20.604871691921726     
   24.122738224160916     
   1675.2721739892065     
   42.180403977869730     
   20.000000129600149     
   21.247493273336698     
   1278.5080648539313     
   21.137912026862448     
   20.065610203984686     
   20.938628322040362     
   20.106630871590390     
   36.244727132284027     
   20.873899514560268     
   44.208106931983700     
   37.461159005882728     
   1211.4275774942021     
   1676.3968795166008     
   20.232906354465754     
   20.208155672548720     
   21.948283308732083     
   20.170245022944489     
   20.008977018911004     
   1736.2925299054471     
   20.015460730311990     
   20.512846680692615     
   24.111780491725067     
   20.152432387502184     
   21.469889613562550     
   20.691078232830169     
   20.077083987123391     
   21.940074803107489     
   20.000000243693837     
   23.574618518351397     
   24.442774874449146     
   24.391177573190539     
   20.000000202739407     
   20.374113333789161     
   20.035845135064779     
   20.123954164471829     
   20.031591758679287     
   20.022022082230627     
   20.862107028201589     
   20.025263727366923     
   42.894253181951989     
   20.278649531670830     
   434.05756518914336     
   426.35406685919475     
   20.730541229127780     
   20.963655069044314     
   695.32221103821757     
   699.83050267329008     
   20.088238596465960     
   20.377359686526926     
   20.000000189756026     
   1708.0051006367196     
   20.000000163253794     
   20.000000494867237     
   20.008072119495512     
   20.004412764885640     
   20.010888124033333     
   20.000000652273563     
   41.473035348901917     
   20.017989883322237     
   20.000001363680155     
   21.669112540884630     
   22.127723419553590     
   20.059111610433938     
   22.057486976647052     
   20.125415854534200     
   20.170321041658980     
   20.000000401385925     
   1676.2023280575304     
   20.000000811580975     
   20.153600591832806     
   20.043212736498798     
   20.061241058194216     
   20.000002084418746     
   20.000005587420212     
   20.000000319849100     
   409.82001053425364     
   20.012550468249064     
   20.003931465330442     
   248.47923562791036     
   20.002170910266461     
   152.80629416497675     
   20.314737441952811     
   20.416713733905350     
   405.94146582744804     
   20.006604716303077     
   859.51850057902504     
   20.017707660306485     
   20.025070380417333     
   61.272015706173846     
   20.000021733530087     
   803.39051210712114     
   20.000831202107126     
   41.875561967311164     
   20.000008369494143     
   20.001024271155444     
   20.000002738231128     
   246.80312889043793     
   20.000001697182345     
   214.35486829392804     
   217.43816514919118     
   20.022366026916327     
   20.005549614200170     
   20.000000311124357     
   20.059185461238791     
   20.000000255091617     
   20.000003324716680     
   27.130979382402021     
   520.47340646620330     
   26.092161597184678     
   20.000445772141930     
   20.000001072911690     
   20.000000130350898     
   134.13429332916081     
   22.887993674013824     
   135.78469779764274     
   20.000177290453198     
   20.000001708290906     
   20.000399863556574     
   20.003773809018234     
   151.81369873188251     
   21.314217357686474     
   307.42845772009144     
   20.049126659224786     
   20.066304817033565     
   20.002742508586515     
   20.414629706580616     
   20.000000403729356     
   20.000561007049264     
   530.96197764655506     
   20.568335004259094     
   20.000006883279593     
   20.000032146913760     
   20.233430807406727     
   85.859213453147291     
   1320.0249659768547     
   86.890655165686638     
   1007.5128439043405     
   481.06837995411246     
   188.86310031377113     
   20.000660485092261     
   20.001877395605227     
   20.000138801603658     
   503.87648739901061     
   20.001280353242144     
   20.000004433909883     
   20.000006941435458     
   20.000173538483121     
   311.41331166109700     
   20.001784426280221     
   56.853355951326883     
   57.318662491858646     
   20.000010882992008     
   20.000120351968615     
   116.58509242774502     
   20.003048583984270     
   20.000026430097208     
   20.000013156098593     
   20.000001046034829     
   38.217747620817320     
   60.897669953201039     
   20.007986888608794     
   21.619318504701031     
   20.000026739087396     
   20.000000119901394     
   243.88159253018119     
   191.21243056303473     
   20.000312929557399     
   20.000071789676582     
   20.000017292406973     
   41.688863831687257     
   49.044343352707820     
   20.000091607258270     
   1012.2246557122847     
   20.312935790527604     
   117.65135831634332     
   20.000041394366161     
   162.14279289733705     
   153.85441742057984     
   35.093568727964943     
   20.000049352452173     
   32.801466618602888     
   20.000178459490616     
   20.003023799000445     
   20.004387184537141     
   55.882772313162782     
   20.000000299956874     
   259.12318094167313     
   20.049214260193992     
   25.221322748422157     
   25.203347273866338     
   28.164876138193442     
   20.000000153101112     
   579.30838704111500     
   20.000208242523371     
   20.000000267288105     
   20.000063940636046     
   25.963999275844987     
   20.000097999167743     
   102.58366032152051     
   20.001431323339013     
   20.002085292107811     
   20.000401675225774     
   97.530842576302049     
   23.111840550259497     
   20.000075689468051     
   20.000000325132373     
   20.000115961183226     
   20.000000602253699     
   23.927799846815564     
   20.000000133992696     
   20.000476504700281     
   20.000046814220809     
   20.000884515175237     
   20.001485322385278     
   20.066687097353558     
   20.000148543542885     
   22.825726954648843     
   20.000000371534771     
   20.002719665501157     
   53.743631772696276     
   20.000972963032861     
   49.502637370504985     
   20.001050502847818     
   20.000030415494919     
   20.000000209576072     
   20.000037025113752     
   20.000250732360723     
   20.000000486232970     
   21.285099620267765     
   20.000004320942445     
   21.818907966046829     
   20.000024063401590     
   20.002792644234265     
   20.000000232152654     
   20.555479614396319     
   20.003289100327081     
   31.241294234430040     
   35.296133890545846     
   324.87024076756239     
   20.643754644542188     
   51.191426109257620     
   66.688140426065573     
   1433.5563079493297     
   63.733328846572412     
   20.227962124831652     
   20.000019638438467     
   20.000008042219786     
   20.008399233242866     
   20.000266498297073     
   20.803872772485690     
   1515.0936483710304     
   20.000006274988586     
   20.000015504304262     
   20.000056585796596     
   20.009801754744274     
   20.000316630783917     
   20.000000573737235     
   739.04769900085671     
   570.83591649604625     
   20.023998402402956     
   20.004537149440139     
   20.000877192658656     
   20.338516505076658     
   20.000000579079806     
   20.027777275930511     
   1458.7402337509138     
   28.380449899121203     
   20.111545982016356     
   20.000209587770225     
   20.000272734994716     
   20.000180714602571     
   20.000000591951778     
   20.065237392747104     
   20.000000538276613     
   1380.6001234657238     
   1188.4541358854501     
   20.000000100075106     
   1251.0163209103791     
   20.000000653985950     
   20.074890769978850     
   1365.9196603439877     
   20.003968980499849     
   29.834618223675772     
   866.17023851050135     
   1388.7019032871829     
   20.000002242569174     
   24.049811156084850     
   20.000000200807452     
   20.000012646307209     
   20.000197415476251     
   20.000299463050936     
   20.000005100943774     
   20.000000301870259     
   20.000002475871621     
   20.000000248781507     
   919.09486489341839     
   21.877043639073516     
   20.000009873416648     
   656.03090815352675     
   20.000000218190035     
   20.000003945645464     
   20.830426647624453     
   20.349870212264861     
   20.000000126967187     
   20.000000188363316     
   1175.1092309844098     
   20.000000416549575     
   1288.5033632002680     
   1068.5152675998986     
   20.000267381926239     
   20.000209657151196     
   1477.6474382348922     
   29.313126306923245     
   329.33865459403484     
   20.015863790618326     
   20.000000285155608     
   20.000000159271249     
   20.000000656663975     
   777.60100951319146     
   20.000091740601651     
   20.000000424406728     
   20.000016968105871     
   20.000077621335247     
   20.001914632347393     
   1317.0642118787039     
   762.71094821041322     
   20.000000257872319     
   20.000000522527422     
   47.588699285577128     
   1197.8017234349979     
   20.000085698475036     
   20.000000960401316     
   1211.3436446219953     
   1287.4579895100298     
   20.002241037815416     
   20.000598677061323     
   1004.9244232264643     
   20.000000443337196     
   20.000002361983952     
   20.000001263352800     
   20.000001474354494     
   909.67873924579521     
   20.000706750527630     
   20.000002017263952     
   20.000002698021841     
   28.808698440487635     
   26.415367820941444     
   20.000001083665637     
   20.000000353453167     
   20.003143945797898     
   20.000000844956322     
   1138.6619401780001     
   20.000001729506081     
   1035.9158485704320     
   20.000000874766478     
   856.92637035925361     
   20.000000334384815     
   971.84952061903425     
   775.07200054159910     
   1030.3755492248456     
   1205.4478171778126     
   1032.8833851105335     
   20.000000783684651     
   20.000000368265031     
   20.000000676587913     
   869.44380757984152     
   836.11233046990310     
   758.33857159441368     
   730.94238620243357     
   1115.9021550930690     
   659.24828284408579     
   20.000079483747555     
   20.000000920937431     
   20.000003578418401     
   20.000003234576329     
   1231.2869516742956     
   884.96931135689806     
   889.11679738211399     
   962.41023471550454     
   625.78679758581654     
   716.49261141833142     
   20.000003519215493     
   20.000002743035090     
   20.000010588289978     
   556.50065630565086     
   827.05926128320698     
   554.36099278728761     
   20.000004277074972     
   20.000016636128478     
   20.000022396811747     
   624.50103982396979     
   466.83914943987855     
   760.23351048028155     
   20.000009261085424     
   606.71550737038854     
   646.24085325236547     
   20.000003737355147     
   20.000014000875002     
   654.93455922176895     
   20.000034519067150     
   20.000014362847327     
   532.76139577010201     
   20.000025768567063     
   20.000013918936254     
   20.000010957808524     
   20.000039490888550     
   559.91401484509834     
   452.38148357637527     
   475.91408278681308     
   20.000004371682170     
   383.36718970954871     
   405.01186767119339     
   20.000080376820968     
   20.000099465695172     
   20.000005929839361     
   20.000098613221073     
   708.68868184215603     
   20.000225866703740     
   20.000272458844421     
   20.000341316970218     
   20.000118363266299     
   295.79545271971517     
   20.000186597933688     
   20.000150798875634     
   398.08592989094052     
   20.000345193437216     
   20.000228513540385     
   20.000006843336735     
   20.000468122412318     
   20.000406356847350     
   20.000310586116562     
   20.000758382698095     
   20.000281790198038     
   20.001649712632162     
   20.001964323112322     
   20.005157111420257     
   20.003544732446244     
   20.002955109553866     
   20.004285563589100     
   20.007314599735704     
   20.021055046201301     
   20.008867709211660     
   20.007384507063676     
   20.015102773600461     
   20.010591559721426     
   20.057667657168540     
   20.025303839828336     
   20.021251767277992     
   20.042065056795458     
   20.029976306701077     
   20.030711921018483     
   20.012646086543899     
   20.042679799583890     
   20.033631498666335     
   20.024362241530490     
   20.021945224187888     
   20.149831178096143     
   20.068706703110426     
   20.058192511083352     
   20.111512818891114     
   20.080734320202495     
   20.035492651984292     
   385.82813615524918     
   20.371908945282520     
   20.177706843975898     
   20.151505014353567     
   20.280303875166364     
   20.206141998221131     
   20.094807865340297     
   20.274463295122530     
   20.214802300760184     
   20.146710530434088     
   20.199051307263936     
   20.879430199726254     
   20.437161207692647     
   20.375892516427406     
   20.673301199027250     
   20.504396333363278     
   20.241192891973398     
   20.161122896014760     
   21.984725058255840     
   21.025104483740130     
   20.888584366324864     
   21.542200589566498     
   21.173732303421364     
   20.583725257510473     
   21.404536957561103     
   21.134941641591240     
   20.809617601930871     
   21.064823158602767     
   24.279269461182782     
   22.294451138917687     
   22.004629392963935     
   23.376713599610536     
   22.603221068616303     
   21.347504095293292     
   236.94761922135018     
   271.35819814340164     
   247.85793208152253     
   20.875326533747032     
   25.515114964674023     
   131.15660736224518     
   288.04857976121605     
   142.50984839829022     
   128.84481105303050     
   146.48605327432213     
   28.828975969521682     
   269.92686446462432     
   236.62395629316131     
   289.65084478610908     
   24.908419942999270     
   24.320886836889443     
   71.821361837480652     
   230.86098813140089     
   121.83135487259632     
   67.706266462553103     
   145.81507251034108     
   22.970684208793227     
   110.00940782078246     
   234.81050651301314     
   26.276910175523120     
   27.073538183008061     
   321.37170475848217     
   197.59142526846611     
   177.19601009891983     
   124.14082428007910     
   41.033682625269208     
   104.97178275423238     
   34.025411465953610     
   32.813467872435808     
   79.318522100794965     
   42.303139176432602     
   328.68115264498579     
   30.042350750422486     
   28.909657116316943     
   245.00902068192403     
   33.993387945853407     
   235.50732152628194     
   81.289776933052551     
   153.57108329710863     
   40.963642499336856     
   170.73813132000438     
   171.09000903887147     
   167.09578964149088     
   230.80927808740140     
   31.163381092855118     
   151.34418396386786     
   94.834464575264334     
   94.584259596291005     
   293.25839756266072     
   92.317807599597629     
   326.26171899876135     
   61.206200154821161     
   68.444137827489371     
   78.481889620250215     
   208.69629229242130     
   339.50861743961138     
   45.832098140767059     
   180.95895088579505     
   269.03519103343075     
   20.000679917984197     
   71.558592177156513     
   76.528557613072707     
   314.51380843652254     
   20.001880333122593     
   20.000885212000835     
   61.004386015668018     
   32.638266009400596     
   82.938711235235360     
   131.51574075846926     
   440.22464035700443     
   317.55210608833255     
   231.40180073196154     
   263.20671195692819     
   143.94083588874580     
   92.446895330867676     
   61.287439345885936     
   42.867083132369018     
   32.258237012295723     
   26.280135947213047     
   23.117281513065052     
   21.473214050165915     
   20.669201175288649     
   20.289025177490824     
   20.119179395328025     
   20.046138318284477     
   20.017540973405506     
   20.006182834629829     
   20.002109259901285     
   20.001454688780825     
   20.000995321482538     
   20.001293697848201     
   20.000459670519646     
   20.000601685762252     
   20.000138947719513     
   20.000039613124578     
   20.000010709411359     
   20.000002762913692     
   20.000768697190210     
   20.000002207164599     
   20.000008887055031     
   20.000033922546844     
   20.000123331835283     
   20.000424291392978     
   20.000938826899024     
   20.001380908055644     
   20.001137844027078     
   20.002026370325940     
   20.001675304572846     
   20.006204335166593     
   20.017997974963738     
   20.049673140930011     
   20.130531270906047     
   20.326462565661494     
   20.777599997549316     
   21.767170685389619     
   23.836204296331879     
   27.967531521754250     
   35.868425507158740     
   50.410754975901753     
   76.309710757514949     
   88.630138489505683     
   81.776650354888801     
   103.51331953478206     
   120.92886015893127     
   195.83958419319879     
   318.70479103428727     
   516.50374136345306     
   89.007403529070743     
   200.66494322791434     
   212.04709862879588     
   145.73592489272974     
   20.000516898348479     
   103.74377895926763     
   277.10448567738018     
   58.805542727006760     
   112.25817746747623     
   44.841158444831599     
   20.000630626217415     
   50.852287470945349     
   96.202389406880627     
   249.80327514062822     
   61.989499089589927     
   344.34402430369101     
   41.795321926143153     
   68.034922795351051     
   154.10141895459500     
   111.78469589222371     
   54.699490710865732     
   106.16754630275412     
   46.321882878826059     
   47.964990613901065     
   42.707836677730413     
   58.941829787114685     
   51.903552772861673     
   125.02851347908981     
   277.50136588040158     
   167.07950420479659     
   111.01915629649248     
   47.046380192892094     
   33.768250205396320     
   57.784320255251835     
   106.67836898411147     
   70.162993234383293     
   53.371869054058401     
   66.391490024540033     
   37.535336937436703     
   91.197732659822492     
   40.022825936509335     
   40.628189435297280     
   34.529545571137646     
   38.187835250294420     
   36.819810981820773     
   143.54995796685091     
   40.918255469484130     
   146.04924359405643     
   31.197498353118082     
   36.165423647921124     
   90.720098813803915     
   33.413761664625028     
   25.401182934641639     
   31.384845380967484     
   92.027002711811150     
   82.803300693719521     
   96.159745751152272     
   30.607640264345399     
   26.862863622193458     
   179.11561175754883     
   25.796673017861060     
   210.37371723321363     
   29.187217217471495     
   28.526525801004844     
   22.568055366513995     
   25.852609949182511     
   27.266702098539771     
   201.31279586311001     
   25.463309479473367     
   26.708275788158652     
   25.520992898598937     
   25.745825687232617     
   22.782450009299080     
   25.253135714507685     
   23.273940900753782     
   24.519346156000658     
   24.128228167962021     
   23.537295684979668     
   21.155929162992166     
   22.611166857982791     
   23.215306556293253     
   22.736779575348635     
   22.484277434409560     
   21.276758121154351     
   21.500281378949960     
   22.119607538541732     
   21.922543687130027     
   21.631804697864691     
   20.505805398211908     
   21.179913904229728     
   21.473111875857263     
   21.242217374937862     
   21.120269191920379     
   20.556043472888881     
   20.665451086931306     
   20.948777769841552     
   20.854002289179768     
   20.720471028953831     
   20.208813463530831     
   20.509563473592383     
   20.645326158314415     
   20.540977929603198     
   20.483974224772343     
   20.234671054112138     
   20.278877313334764     
   20.406331849991407     