# vtk DataFile Version 2.0
 temperature
 ASCII
 DATASET UNSTRUCTURED_GRID
 POINTS         773  double
   0.0000000000000000        0.0000000000000000        0.0000000000000000     
   3.5000000000000000        0.0000000000000000        0.0000000000000000     
   3.5000000000000000        40.000000000000000        0.0000000000000000     
   0.0000000000000000        40.000000000000000        0.0000000000000000     
  0.43750000000000000        0.0000000000000000        0.0000000000000000     
  0.87500000000000000        0.0000000000000000        0.0000000000000000     
   1.3125000000000000        0.0000000000000000        0.0000000000000000     
   1.7500000000000000        0.0000000000000000        0.0000000000000000     
   2.1875000000000000        0.0000000000000000        0.0000000000000000     
   2.6250000000000000        0.0000000000000000        0.0000000000000000     
   3.0625000000000000        0.0000000000000000        0.0000000000000000     
   3.5000000000000000       0.50000000000000000        0.0000000000000000     
   3.5000000000000000        1.0000000000000000        0.0000000000000000     
   3.5000000000000000        1.5000000000000000        0.0000000000000000     
   3.5000000000000000        2.0000000000000000        0.0000000000000000     
   3.5000000000000000        2.5000000000000000        0.0000000000000000     
   3.5000000000000000        3.0000000000000000        0.0000000000000000     
   3.5000000000000000        3.5000000000000000        0.0000000000000000     
   3.5000000000000000        4.0000000000000000        0.0000000000000000     
   3.5000000000000000        4.5000000000000000        0.0000000000000000     
   3.5000000000000000        5.0000000000000000        0.0000000000000000     
   3.5000000000000000        5.5000000000000000        0.0000000000000000     
   3.5000000000000000        6.0000000000000000        0.0000000000000000     
   3.5000000000000000        6.5000000000000000        0.0000000000000000     
   3.5000000000000000        7.0000000000000000        0.0000000000000000     
   3.5000000000000000        7.5000000000000000        0.0000000000000000     
   3.5000000000000000        8.0000000000000000        0.0000000000000000     
   3.5000000000000000        8.5000000000000000        0.0000000000000000     
   3.5000000000000000        9.0000000000000000        0.0000000000000000     
   3.5000000000000000        9.5000000000000000        0.0000000000000000     
   3.5000000000000000        10.000000000000000        0.0000000000000000     
   3.5000000000000000        10.500000000000000        0.0000000000000000     
   3.5000000000000000        11.000000000000000        0.0000000000000000     
   3.5000000000000000        11.500000000000000        0.0000000000000000     
   3.5000000000000000        12.000000000000000        0.0000000000000000     
   3.5000000000000000        12.500000000000000        0.0000000000000000     
   3.5000000000000000        13.000000000000000        0.0000000000000000     
   3.5000000000000000        13.500000000000000        0.0000000000000000     
   3.5000000000000000        14.000000000000000        0.0000000000000000     
   3.5000000000000000        14.500000000000000        0.0000000000000000     
   3.5000000000000000        15.000000000000000        0.0000000000000000     
   3.5000000000000000        15.500000000000000        0.0000000000000000     
   3.5000000000000000        16.000000000000000        0.0000000000000000     
   3.5000000000000000        16.500000000000000        0.0000000000000000     
   3.5000000000000000        17.000000000000000        0.0000000000000000     
   3.5000000000000000        17.500000000000000        0.0000000000000000     
   3.5000000000000000        18.000000000000000        0.0000000000000000     
   3.5000000000000000        18.500000000000000        0.0000000000000000     
   3.5000000000000000        19.000000000000000        0.0000000000000000     
   3.5000000000000000        19.500000000000000        0.0000000000000000     
   3.5000000000000000        20.000000000000000        0.0000000000000000     
   3.5000000000000000        20.500000000000000        0.0000000000000000     
   3.5000000000000000        21.000000000000000        0.0000000000000000     
   3.5000000000000000        21.500000000000000        0.0000000000000000     
   3.5000000000000000        22.000000000000000        0.0000000000000000     
   3.5000000000000000        22.500000000000000        0.0000000000000000     
   3.5000000000000000        23.000000000000000        0.0000000000000000     
   3.5000000000000000        23.500000000000000        0.0000000000000000     
   3.5000000000000000        24.000000000000000        0.0000000000000000     
   3.5000000000000000        24.500000000000000        0.0000000000000000     
   3.5000000000000000        25.000000000000000        0.0000000000000000     
   3.5000000000000000        25.500000000000000        0.0000000000000000     
   3.5000000000000000        26.000000000000000        0.0000000000000000     
   3.5000000000000000        26.500000000000000        0.0000000000000000     
   3.5000000000000000        27.000000000000000        0.0000000000000000     
   3.5000000000000000        27.500000000000000        0.0000000000000000     
   3.5000000000000000        28.000000000000000        0.0000000000000000     
   3.5000000000000000        28.500000000000000        0.0000000000000000     
   3.5000000000000000        29.000000000000000        0.0000000000000000     
   3.5000000000000000        29.500000000000000        0.0000000000000000     
   3.5000000000000000        30.000000000000000        0.0000000000000000     
   3.5000000000000000        30.500000000000000        0.0000000000000000     
   3.5000000000000000        31.000000000000000        0.0000000000000000     
   3.5000000000000000        31.500000000000000        0.0000000000000000     
   3.5000000000000000        32.000000000000000        0.0000000000000000     
   3.5000000000000000        32.500000000000000        0.0000000000000000     
   3.5000000000000000        33.000000000000000        0.0000000000000000     
   3.5000000000000000        33.500000000000000        0.0000000000000000     
   3.5000000000000000        34.000000000000000        0.0000000000000000     
   3.5000000000000000        34.500000000000000        0.0000000000000000     
   3.5000000000000000        35.000000000000000        0.0000000000000000     
   3.5000000000000000        35.500000000000000        0.0000000000000000     
   3.5000000000000000        36.000000000000000        0.0000000000000000     
   3.5000000000000000        36.500000000000000        0.0000000000000000     
   3.5000000000000000        37.000000000000000        0.0000000000000000     
   3.5000000000000000        37.500000000000000        0.0000000000000000     
   3.5000000000000000        38.000000000000000        0.0000000000000000     
   3.5000000000000000        38.500000000000000        0.0000000000000000     
   3.5000000000000000        39.000000000000000        0.0000000000000000     
   3.5000000000000000        39.500000000000000        0.0000000000000000     
   3.0625000000000000        40.000000000000000        0.0000000000000000     
   2.6250000000000000        40.000000000000000        0.0000000000000000     
   2.1875000000000000        40.000000000000000        0.0000000000000000     
   1.7500000000000000        40.000000000000000        0.0000000000000000     
   1.3125000000000000        40.000000000000000        0.0000000000000000     
  0.87500000000000000        40.000000000000000        0.0000000000000000     
  0.43750000000000000        40.000000000000000        0.0000000000000000     
   0.0000000000000000        39.500000000000000        0.0000000000000000     
   0.0000000000000000        39.000000000000000        0.0000000000000000     
   0.0000000000000000        38.500000000000000        0.0000000000000000     
   0.0000000000000000        38.000000000000000        0.0000000000000000     
   0.0000000000000000        37.500000000000000        0.0000000000000000     
   0.0000000000000000        37.000000000000000        0.0000000000000000     
   0.0000000000000000        36.500000000000000        0.0000000000000000     
   0.0000000000000000        36.000000000000000        0.0000000000000000     
   0.0000000000000000        35.500000000000000        0.0000000000000000     
   0.0000000000000000        35.000000000000000        0.0000000000000000     
   0.0000000000000000        34.500000000000000        0.0000000000000000     
   0.0000000000000000        34.000000000000000        0.0000000000000000     
   0.0000000000000000        33.500000000000000        0.0000000000000000     
   0.0000000000000000        33.000000000000000        0.0000000000000000     
   0.0000000000000000        32.500000000000000        0.0000000000000000     
   0.0000000000000000        32.000000000000000        0.0000000000000000     
   0.0000000000000000        31.500000000000000        0.0000000000000000     
   0.0000000000000000        31.000000000000000        0.0000000000000000     
   0.0000000000000000        30.500000000000000        0.0000000000000000     
   0.0000000000000000        30.000000000000000        0.0000000000000000     
   0.0000000000000000        29.500000000000000        0.0000000000000000     
   0.0000000000000000        29.000000000000000        0.0000000000000000     
   0.0000000000000000        28.500000000000000        0.0000000000000000     
   0.0000000000000000        28.000000000000000        0.0000000000000000     
   0.0000000000000000        27.500000000000000        0.0000000000000000     
   0.0000000000000000        27.000000000000000        0.0000000000000000     
   0.0000000000000000        26.500000000000000        0.0000000000000000     
   0.0000000000000000        26.000000000000000        0.0000000000000000     
[...]
 CELL_DATA        1368
 SCALARS T double
 LOOKUP_TABLE default
   20.214007002821624     
   22.043429650685972     
   1670.5712618123791     
   35.979624802894463     
   20.000000000870411     
   20.501537427244383     
   1274.3824960007789     
   20.443440959094520     
   20.014127714000747     
   20.355128161101764     
   20.025436205516137     
   30.746802210157462     
   20.310797855409504     
   37.408986118064334     
   31.726671541851658     
   1207.2087796997848     
   1671.5828934950669     
   20.064348702850648     
   20.055328461833223     
   20.825144228840390     
   20.043743593069397     
   20.001200885563186     
   1732.5916356192085     
   20.002325828899256     
   20.177641653942821     
   22.098253225568026     
   20.036406578714086     
   20.606102490201586     
   20.244579766496376     
   20.017034508642141     
   20.848096379896482     
   20.000000001911680     
   21.731354263853078     
   22.248988688625637     
   22.281767283854720     
   20.000000001516639     
   20.109937699516628     
   20.006379924929838     
   20.029621647566149     
   20.005383607946023     
   20.003315690062308     
   20.315930228424900     
   20.004137975525140     
   36.000666655041584     
   20.079338781227261     
   410.94803297230879     
   403.59514803717718     
   20.251718078013958     
   20.353304852047689     
   686.42543003995684     
   690.02577590095848     
   20.020463951614897     
   20.115064646426351     
   20.000000001406541     
   1704.8835212474694     
   20.000000001168090     
   20.000000004704262     
   20.000988096317577     
   20.000496891953787     
   20.001504958664803     
   20.000000006648282     
   35.049039463581551     
   20.002711065069256     
   20.000000016730930     
   20.689034878942135     
   20.924400536452524     
   20.011293681252166     
   20.914975998405833     
   20.028879860935081     
   20.042139368008726     
   20.000000003600437     
   1672.5209682411567     
   20.000000008778226     
   20.038042605824884     
   20.007954753920103     
   20.012230264710141     
   20.000000028731655     
   20.000000098277820     
   20.000000002686782     
   386.11016794164414     
   20.001826193344364     
   20.000423094273614     
   225.38732640750683     
   20.000194783155383     
   132.71096322136424     
   20.089666822098383     
   20.126504341160629     
   382.38207931211122     
   20.000778938267491     
   851.69043747751914     
   20.002554692305431     
   20.003936474106219     
   49.747250382105598     
   20.000000540043953     
   795.70702023682168     
   20.000055930225830     
   34.164593734216012     
   20.000000164396567     
   20.000076293572924     
   20.000000040338847     
   223.88409784829898     
   20.000000022135055     
   200.32702659130007     
   202.61221699033399     
   20.003504048778925     
   20.000650567089554     
   20.000000002615529     
   20.012306520312716     
   20.000000002018556     
   20.000000051608573     
   24.085712292827004     
   499.67467069326193     
   23.102672516406727     
   20.000025924408746     
   20.000000012391833     
   20.000000000881677     
   120.99955982653248     
   21.259794101953382     
   122.04328773819512     
   20.000007546088344     
   20.000000022233490     
   20.000023246485011     
   20.000369055722160     
   131.87285778698256     
   20.483417359304003     
   284.39627380652655     
   20.009059514387044     
   20.013129411999728     
   20.000257159506930     
   20.130046325320979     
   20.000000003614019     
   20.000034202248450     
   509.65451287021006     
   20.173194221753494     
   20.000000128290743     
   20.000000888888476     
   20.057925748667053     
   74.789209676537638     
   1315.2429344077300     
   75.338449895645269     
   1001.7456914800875     
   469.23763269522351     
   167.74906740839634     
   20.000042424026010     
   20.000160373220659     
   20.000006261403854     
   491.76819224037746     
   20.000099533968140     
   20.000000073619116     
   20.000000129188198     
   20.000007396580063     
   288.03032498801736     
   20.000145089492158     
   48.365713984409496     
   48.554783468532776     
   20.000000227858486     
   20.000005431861510     
   99.129870083852438     
   20.000314013598963     
   20.000000693528666     
   20.000000289870400     
   20.000000012053459     
   32.936768300689003     
   49.475109485313666     
   20.001024943406289     
   20.690079352673326     
   20.000000701124954     
   20.000000000800309     
   229.80946064820841     
   169.77358166567021     
   20.000017352236533     
   20.000002608662022     
   20.000000405934415     
   34.044284475398257     
   39.872751523839149     
   20.000003935055545     
   1005.8504608396015     
   20.092700765537856     
   99.959379342995135     
   20.000001216586242     
   147.89502826297391     
   140.22783171275816     
   29.197364163342673     
   20.000001520894124     
   28.080315644903575     
   20.000008456048374     
   20.000282997982584     
   20.000449926550981     
   46.453393488926856     
   20.000000002517918     
   244.40941378061416     
   20.009472256264775     
   22.865353900043377     
   22.840636296469633     
   24.467742508879844     
   20.000000001207255     
   568.02780471498022     
   20.000011004903897     
   20.000000002259032     
   20.000002097931397     
   23.037327458154888     
   20.000003582272722     
   90.164497861245920     
   20.000111299294954     
   20.000178020126992     
   20.000021155887239     
   85.723890378900222     
   21.496877557587098     
   20.000002599216405     
   20.000000002919865     
   20.000004435140564     
   20.000000006102479     
   21.854411483073324     
   20.000000001054552     
   20.000026305466946     
   20.000001527815360     
   20.000056776554150     
   20.000121449711180     
   20.013690628370757     
   20.000006031979012     
   21.232553898621042     
   20.000000003317744     
   20.000267442135282     
   44.648720915221070     
   20.000068770208866     
   40.180769624533909     
   20.000070698928766     
   20.000000889955430     
   20.000000001773167     
   20.000001150982946     
   20.000012483105223     
   20.000000004638448     
   20.472466014176167     
   20.000000071561871     
   20.729600093574120     
   20.000000670536970     
   20.000238757901815     
   20.000000001964672     
   20.169167146524796     
   20.000294090103900     
   26.941476612890547     
   29.313098700538699     
   307.63505637156084     
   20.220906314384877     
   43.108396208714836     
   56.874159061062109     
   1427.9648291218793     
   54.447480174080951     
   20.056556770811721     
   20.000000514353253     
   20.000000167789949     
   20.000942573160089     
   20.000012651926440     
   20.269347945013934     
   1508.6164384859585     
   20.000000124278507     
   20.000000386603411     
   20.000001957844500     
   20.001147260949104     
   20.000015775754182     
   20.000000006647547     
   724.76406961939756     
   560.60901170298632     
   20.003480624854721     
   20.000487486901765     
   20.000062076444475     
   20.093173712348044     
   20.000000005875751     
   20.004191269368608     
   1452.6824860138856     
   24.582111469837557     
   20.025607835435615     
   20.000009414181562     
   20.000015125620944     
   20.000009031920296     
   20.000000006415849     
   20.012041713889612     
   20.000000005841333     
   1370.9628700461626     
   1186.0120546509143     
   20.000000000743121     
   1242.4360490535857     
   20.000000007573600     
   20.014344299025623     
   1358.3729104090664     
   20.000407514048405     
   26.181280134908398     
   856.09549585547131     
   1380.7755309135309     
   20.000000035062399     
   21.911478961271040     
   20.000000001491802     
   20.000000296252637     
   20.000009356083233     
   20.000015761861302     
   20.000000094863346     
   20.000000002711474     
   20.000000038707281     
   20.000000002238782     
   908.09909932848620     
   20.752591259004333     
   20.000000219617853     
   641.47394203773649     
   20.000000001964455     
   20.000000069519242     
   20.278124996323594     
   20.096253732608773     
   20.000000000894566     
   20.000000001487660     
   1165.0377177044556     
   20.000000004537487     
   1281.8538040866449     
   1057.5340873409621     
   20.000014040924032     
   20.000010502276350     
   1469.4982626246194     
   25.789396369582750     
   312.67748235601897     
   20.002285199615347     
   20.000000002414463     
   20.000000001345473     
   20.000000006681603     
   764.77804649855739     
   20.000003729760408     
   20.000000004054215     
   20.000000397948199     
   20.000002986280066     
   20.000149047293672     
   1307.7917618917372     
   757.18168228182424     
   20.000000002479258     
   20.000000005004132     
   40.022972829129259     
   1185.2271595743996     
   20.000003292514965     
   20.000000011796057     
   1203.2843118982771     
   1276.2612650661115     
   20.000182197381516     
   20.000034850268211     
   992.47731353409688     
   20.000000004221331     
   20.000000039309455     
   20.000000016455488     
   20.000000021761053     
   896.49041097433678     
   20.000043072851732     
   20.000000029603431     
   20.000000044897295     
   25.084946714213157     
   23.649239756597883     
   20.000000015092560     
   20.000000003610815     
   20.000309089667205     
   20.000000009170684     
   1126.7523280157848     
   20.000000027139720     
   1022.9539520274182     
   20.000000010754583     
   842.34367309796642     
   20.000000003204679     
   957.38801044062586     
   759.92793842482013     
   1020.0657910588207     
   1194.9614681263536     
   1017.6284311350947     
   20.000000008469669     
   20.000000003528349     
   20.000000008351016     
   857.06775920379221     
   819.56647546803424     
   741.16581258632095     
   714.51589285939360     
   1101.9190577901888     
   642.47133905627868     
   20.000003230758395     
   20.000000012046641     
   20.000000063040414     
   20.000000053536862     
   1225.1366545190397     
   867.32113447194092     
   873.85641160939610     
   945.92319809236108     
   609.99610674942528     
   698.21979805894432     
   20.000000055058614     
   20.000000040298676     
   20.000000249636624     
   534.07646125815563     
   808.40482177296201     
   532.18787871022721     
   20.000000080092605     
   20.000000464686160     
   20.000000660775932     
   606.59941824732743     
   449.90530441441950     
   740.63174924265797     
   20.000000218355069     
   584.82273203145473     
   627.53800484607848     
   20.000000069960333     
   20.000000349155311     
   633.78597916129479     
   20.000001136101915     
   20.000000378559939     
   513.66006287128789     
   20.000000803911153     
   20.000000308991684     
   20.000000229082271     
   20.000001299592224     
   541.84002691474018     
   432.30239565545276     
   456.88102693169787     
   20.000000086903121     
   362.73841953307146     
   385.23335515369678     
   20.000002783562312     
   20.000003638351775     
   20.000000124762799     
   20.000003775488970     
   688.22677938553147     
   20.000010192774212     
   20.000012924496541     
   20.000017093969241     
   20.000004785436609     
   281.70571578884699     
   20.000007993739843     
   20.000006128275562     
   376.65532109583933     
   20.000017282254564     
   20.000010311362029     
   20.000000152435742     
   20.000028726504905     
   20.000024917927970     
   20.000018154117289     
   20.000046415241975     
   20.000013394645418     
   20.000122649450379     
   20.000152925998730     
   20.000507236738787     
   20.000317773249606     
   20.000253031011354     
   20.000402341815359     
   20.000786598308757     
   20.002933624364989     
   20.000996118418392     
   20.000793661748816     
   20.001934695338409     
   20.001243873211262     
   20.010251839797636     
   20.003673209370774     
   20.002959297008221     
   20.006911449051820     
   20.004537850292131     
   20.005457079364877     
   20.001549946377068     
   20.008215137819889     
   20.006231146538596     
   20.004169226103929     
   20.003594726372111     
   20.033434295282358     
   20.012692143630993     
   20.010338878147429     
   20.023137660109484     
   20.015512540736093     
   20.005593035703388     
   363.19863120357974     
   20.102601677852558     
   20.041129600964712     
   20.033802460973611     
   20.072223658203463     
   20.049439933720269     
   20.018914067783442     
   20.081374107935918     
   20.061417705505320     
   20.037714515389805     
   20.054904370005016     
   20.295145100409481     
   20.124739560803896     
   20.103678455567440     
   20.212185424583517     
   20.148831423644982     
   20.059965264961296     
   20.043068634511204     
   20.797216276999190     
   20.354856047305397     
   20.298146331169796     
   20.584800990210390     
   20.419036646554577     
   20.177954949821736     
   20.598391970758197     
   20.469874833205605     
   20.306296774451241     
   20.427720010625897     
   22.023453294683456     
   20.947930522036465     
   20.804981774612617     
   21.515811798871962     
   21.105798934591181     
   20.495669235646378     
   218.03892888892017     
   249.39799379716621     
   229.57972283470323     
   20.342425926420297     
   22.741172638256231     
   115.28722611778556     
   266.43201597425821     
   123.90097531425499     
   111.23518003413562     
   129.52928383604376     
   24.833259259122649     
   253.05572144884687     
   214.60789822417391     
   271.25450816724077     
   22.380613092464031     
   22.042546655044205     
   60.280191258202962     
   209.43213957398487     
   104.44078014090400     
   57.112884885457454     
   126.68752091336081     
   21.297047316338482     
   93.684324371375766     
   218.78643724272291     
   23.200876275897102     
   23.697272489371041     
   299.17727088483139     
   176.87184281844861     
   157.42461257331234     
   107.30309474379638     
   34.109763434221612     
   91.288483924599603     
   28.373488339314314     
   27.637452836974315     
   66.736082125216313     
   35.216469835515127     
   309.59755061216765     
   25.621490101457699     
   24.875432139023584     
   223.74128536846715     
   28.514923611677695     
   215.16152796895400     
   67.598125393912127     
   136.84717399422695     
   34.318980523711843     
   151.79487980238306     
   153.37565318909429     
   147.35187591427999     
   213.80517810762893     
   26.382277079163970     
   132.55613677797734     
   78.979231063758988     
   79.533697757089200     
   273.00984108378492     
   79.883142766261884     
   305.45001823271826     
   51.586698437266939     
   57.093653490211707     
   65.425042190839051     
   188.02941109136447     
   317.75264107709415     
   37.656984521218057     
   162.09185945350970     
   257.79453968437758     
   20.000048334701937     
   59.478348715664474     
   63.261153964161942     
   302.49124210722641     
   20.000168827201517     
   20.000065911804811     
   49.993347989128836     
   27.394233190166766     
   69.582494560423243     
   114.56181007524452     
   431.08079036995673     
   306.77324849971592     
   219.70194619504150     
   250.73659156286573     
   132.43083155258250     
   82.208441266720314     
   53.045162763210264     
   36.780376826519046     
   28.105460735177083     
   23.679720414436481     
   21.591341140698191     
   20.644760055309675     
   20.246729018410317     
   20.088296572205163     
   20.029716875263741     
   20.009224479578560     
   20.002773639797564     
   20.000760502860164     
   20.000198556581033     
   20.000124895748002     
   20.000077893544340     
   20.000105955982026     
   20.000029666385185     
   20.000040683634055     
   20.000006627377260     
   20.000001377782187     
   20.000000267405543     
   20.000000048876323     
   20.000047063539142     
   20.000000030647623     
   20.000000175997648     
   20.000000943961197     
   20.000004760102076     
   20.000022355551295     
   20.000060388277614     
   20.000097835603242     
   20.000076866098563     
   20.000157982330332     
   20.000124663203213     
   20.000638298598261     
   20.002404834637947     
   20.008489271446571     
   20.028094284331878     
   20.087091512108177     
   20.253007806360408     
   20.689956178797651     
   21.767832419587009     
   24.262090233111415     
   29.688906652614865     
   40.835526769757962     
   62.566982031525320     
   73.408040829004690     
   67.368825355188307     
   86.795076587101761     
   102.77679491871814     
   173.93815127527472     
   294.85884978775385     
   493.55371267849097     
   74.339269094989731     
   180.91134320277061     
   192.51691374767807     
   127.76432947955250     
   20.000028645889767     
   87.702302715458913     
   256.38753820971567     
   48.374517252986784     
   96.451987949403843     
   36.672943303880459     
   20.000036707837815     
   41.480799111301351     
   81.617379125664129     
   229.76768649315670     
   51.193758372282105     
   324.14598857496946     
   34.356587469520093     
   56.248140003453038     
   136.11150598851745     
   96.941964650072265     
   45.023213912080742     
   90.546665094167636     
   38.323195513491015     
   39.460777247891734     
   35.253694653611760     
   48.030441154164357     
   42.578482356249452     
   109.05351782503605     
   258.47783432712731     
   151.05510508679990     
   93.677848082459590     
   38.488416632495628     
   28.558220215922479     
   47.191139810731869     
   91.845576823160002     
   57.828511662558931     
   43.617225288680217     
   54.470650726060910     
   31.114206493947606     
   76.839171176480264     
   32.944277074997089     
   33.337058817892370     
   29.022231730728723     
   31.757106956350540     
   30.666020556568760     
   128.02259675538031     
   33.783216454584633     
   131.17369688924435     
   26.532737789773932     
   30.057106416847784     
   77.887429270445182     
   28.166523855199291     
   22.816643910787512     
   26.764804948909720     
   78.257461532560995     
   70.142054925971465     
   82.386426819774030     
   26.191025588708914     
   23.745134292652086     
   161.70217783428268     
   23.085067562112535     
   192.39411562870725     
   25.240564942737773     
   24.766152283542386     
   21.150106079063555     
   23.194829127207289     
   23.960715623938572     
   182.90234803946703     
   22.917846284008011     
   23.578568833155522     
   22.807870827093030     
   22.990648203279353     
   21.276568208447934     
   22.671199105376076     
   21.542159895710157     
   22.240995738069000     
   21.998073970095902     
   21.668381910902163     
   20.437223763340036     
   21.137238939586542     
   21.476883830033376     
   21.223451424142784     
   21.081915301734401     
   20.497111474513691     
   20.600279649157340     
   20.897751198892379     
   20.792571344935261     
   20.653608224540186     
   20.158911140591517     
   20.432795721221744     
   20.573076258726243     
   20.468874235202744     
   20.410862710910994     
   20.179928407915117     
   20.222324110486259     
   20.337495940898055     
   20.294833035035836     
   20.241067426507527     
   20.053620850564634     
   20.154846174979308     
   20.209103599824846     
   20.169669607825302     
   20.147063131404252     
   20.062446841406171     
   20.076576726740733     
   20.119424141791978     