# vtk DataFile Version 2.0
 temperature
 ASCII
 DATASET UNSTRUCTURED_GRID
 POINTS         773  double
   0.0000000000000000        0.0000000000000000        0.0000000000000000     
   3.5000000000000000        0.0000000000000000        0.0000000000000000     
   3.5000000000000000        40.000000000000000        0.0000000000000000     
   0.0000000000000000        40.000000000000000        0.0000000000000000     
  0.43750000000000000        0.0000000000000000        0.0000000000000000     
  0.87500000000000000        0.0000000000000000        0.0000000000000000     
   1.3125000000000000        0.0000000000000000        0.0000000000000000     
   1.7500000000000000        0.0000000000000000        0.0000000000000000     
   2.1875000000000000        0.0000000000000000        0.0000000000000000     
   2.6250000000000000        0.0000000000000000        0.0000000000000000     
   3.0625000000000000        0.0000000000000000        0.0000000000000000     
   3.5000000000000000       0.50000000000000000        0.0000000000000000     
   3.5000000000000000        1.0000000000000000        0.0000000000000000     
   3.5000000000000000        1.5000000000000000        0.0000000000000000     
   3.5000000000000000        2.0000000000000000        0.0000000000000000     
   3.5000000000000000        2.5000000000000000        0.0000000000000000     
   3.5000000000000000        3.0000000000000000        0.0000000000000000     
   3.5000000000000000        3.5000000000000000        0.0000000000000000     
   3.5000000000000000        4.0000000000000000        0.0000000000000000     
   3.5000000000000000        4.5000000000000000        0.0000000000000000     
   3.5000000000000000        5.0000000000000000        0.0000000000000000     
   3.5000000000000000        5.5000000000000000        0.0000000000000000     
   3.5000000000000000        6.0000000000000000        0.0000000000000000     
   3.5000000000000000        6.5000000000000000        0.0000000000000000     
   3.5000000000000000        7.0000000000000000        0.0000000000000000     
   3.5000000000000000        7.5000000000000000        0.0000000000000000     
   3.5000000000000000        8.0000000000000000        0.0000000000000000     
   3.5000000000000000        8.5000000000000000        0.0000000000000000     
   3.5000000000000000        9.0000000000000000        0.0000000000000000     
   3.5000000000000000        9.5000000000000000        0.0000000000000000     
   3.5000000000000000        10.000000000000000        0.0000000000000000     
   3.5000000000000000        10.500000000000000        0.0000000000000000     
   3.5000000000000000        11.000000000000000        0.0000000000000000     
   3.5000000000000000        11.500000000000000        0.0000000000000000     
   3.5000000000000000        12.000000000000000        0.0000000000000000     
   3.5000000000000000        12.500000000000000        0.0000000000000000     
   3.5000000000000000        13.000000000000000        0.0000000000000000     
   3.5000000000000000        13.500000000000000        0.0000000000000000     
   3.5000000000000000        14.000000000000000        0.0000000000000000     
   3.5000000000000000        14.500000000000000        0.0000000000000000     
   3.5000000000000000        15.000000000000000        0.0000000000000000     
   3.5000000000000000        15.500000000000000        0.0000000000000000     
   3.5000000000000000        16.000000000000000        0.0000000000000000     
   3.5000000000000000        16.500000000000000        0.0000000000000000     
   3.5000000000000000        17.000000000000000        0.0000000000000000     
   3.5000000000000000        17.500000000000000        0.0000000000000000     
   3.5000000000000000        18.000000000000000        0.0000000000000000     
   3.5000000000000000        18.500000000000000        0.0000000000000000     
   3.5000000000000000        19.000000000000000        0.0000000000000000     
   3.5000000000000000        19.500000000000000        0.0000000000000000     
   3.5000000000000000        20.000000000000000        0.0000000000000000     
   3.5000000000000000        20.500000000000000        0.0000000000000000     
   3.5000000000000000        21.000000000000000        0.0000000000000000     
   3.5000000000000000        21.500000000000000        0.0000000000000000     
   3.5000000000000000        22.000000000000000        0.0000000000000000     
   3.5000000000000000        22.500000000000000        0.0000000000000000     
   3.5000000000000000        23.000000000000000        0.0000000000000000     
   3.5000000000000000        23.500000000000000        0.0000000000000000     
   3.5000000000000000        24.000000000000000        0.0000000000000000     
   3.5000000000000000        24.500000000000000        0.0000000000000000     
   3.5000000000000000        25.000000000000000        0.0000000000000000     
   3.5000000000000000        25.500000000000000        0.0000000000000000     
   3.5000000000000000        26.000000000000000        0.0000000000000000     
   3.5000000000000000        26.500000000000000        0.0000000000000000     
   3.5000000000000000        27.000000000000000        0.0000000000000000     
   3.5000000000000000        27.500000000000000        0.0000000000000000     
   3.5000000000000000        28.000000000000000        0.0000000000000000     
   3.5000000000000000        28.500000000000000        0.0000000000000000     
   3.5000000000000000        29.000000000000000        0.0000000000000000     
   3.5000000000000000        29.500000000000000        0.0000000000000000     
   3.5000000000000000        30.000000000000000        0.0000000000000000     
   3.5000000000000000        30.500000000000000        0.0000000000000000     
   3.5000000000000000        31.000000000000000        0.0000000000000000     
   3.5000000000000000        31.500000000000000        0.0000000000000000     
   3.5000000000000000        32.000000000000000        0.0000000000000000     
   3.5000000000000000        32.500000000000000        0.0000000000000000     
   3.5000000000000000        33.000000000000000        0.0000000000000000     
   3.5000000000000000        33.500000000000000        0.0000000000000000     
   3.5000000000000000        34.000000000000000        0.0000000000000000     
   3.5000000000000000        34.500000000000000        0.0000000000000000     
   3.5000000000000000        35.000000000000000        0.0000000000000000     
   3.5000000000000000        35.500000000000000        0.0000000000000000     
   3.5000000000000000        36.000000000000000        0.0000000000000000     
   3.5000000000000000        36.500000000000000        0.0000000000000000     
   3.5000000000000000        37.000000000000000        0.0000000000000000     
   3.5000000000000000        37.500000000000000        0.0000000000000000     
   3.5000000000000000        38.000000000000000        0.0000000000000000     
   3.5000000000000000        38.500000000000000        0.0000000000000000     
   3.5000000000000000        39.000000000000000        0.0000000000000000     
   3.5000000000000000        39.500000000000000        0.0000000000000000     
   3.0625000000000000        40.000000000000000        0.0000000000000000     
   2.6250000000000000        40.000000000000000        0.0000000000000000     
   2.1875000000000000        40.000000000000000        0.0000000000000000     
   1.7500000000000000        40.000000000000000        0.0000000000000000     
   1.3125000000000000        40.000000000000000        0.0000000000000000     
  0.87500000000000000        40.000000000000000        0.0000000000000000     
  0.43750000000000000        40.000000000000000        0.0000000000000000     
   0.0000000000000000        39.500000000000000        0.0000000000000000     
   0.0000000000000000        39.000000000000000        0.0000000000000000     
   0.0000000000000000        38.500000000000000        0.0000000000000000     
   0.0000000000000000        38.000000000000000        0.0000000000000000     
   0.0000000000000000        37.500000000000000        0.0000000000000000     
   0.0000000000000000        37.000000000000000        0.0000000000000000     
   0.0000000000000000        36.500000000000000        0.0000000000000000     
   0.0000000000000000        36.000000000000000        0.0000000000000000     
   0.0000000000000000        35.500000000000000        0.0000000000000000     
   0.0000000000000000        35.000000000000000        0.0000000000000000     
   0.0000000000000000        34.500000000000000        0.0000000000000000     
   0.0000000000000000        34.000000000000000        0.0000000000000000     
   0.0000000000000000        33.500000000000000        0.0000000000000000     
   0.0000000000000000        33.000000000000000        0.0000000000000000     
   0.0000000000000000        32.500000000000000        0.0000000000000000     
   0.0000000000000000        32.000000000000000        0.0000000000000000     
   0.0000000000000000        31.500000000000000        0.0000000000000000     
   0.0000000000000000        31.000000000000000        0.0000000000000000     
   0.0000000000000000        30.500000000000000        0.0000000000000000     
   0.0000000000000000        30.000000000000000        0.0000000000000000     
   0.0000000000000000        29.500000000000000        0.0000000000000000     
   0.0000000000000000        29.000000000000000        0.0000000000000000     
   0.0000000000000000        28.500000000000000        0.0000000000000000     
   0.0000000000000000        28.000000000000000        0.0000000000000000     
   0.0000000000000000        27.500000000000000        0.0000000000000000     
   0.0000000000000000        27.000000000000000        0.0000000000000000     
   0.0000000000000000        26.500000000000000        0.0000000000000000     
   0.0000000000000000        26.000000000000000        0.0000000000000000     
[...]
 CELL_DATA        1368
 SCALARS T double
 LOOKUP_TABLE default
   20.000000000000416     
   20.000000005917091     
   1479.8559587029426     
   20.000501700617036     
   20.000000000000000     
   20.000000000012317     
   1108.2171408280465     
   20.000000000005365     
   20.000000000000000     
   20.000000000002263     
   20.000000000000000     
   20.000035960925448     
   20.000000000000600     
   20.000514844794647     
   20.000058656887006     
   1038.3262273205851     
   1476.5126764187085     
   20.000000000000000     
   20.000000000000000     
   20.000000000063444     
   20.000000000000000     
   20.000000000000000     
   1581.1499719167227     
   20.000000000000000     
   20.000000000000327     
   20.000000012685906     
   20.000000000000000     
   20.000000000026542     
   20.000000000000469     
   20.000000000000000     
   20.000000000139856     
   20.000000000000000     
   20.000000002914383     
   20.000000011078427     
   20.000000022087136     
   20.000000000000000     
   20.000000000000000     
   20.000000000000000     
   20.000000000000000     
   20.000000000000000     
   20.000000000000000     
   20.000000000001030     
   20.000000000000000     
   20.000228327221627     
   20.000000000000000     
   58.136193658981476     
   57.223365373897032     
   20.000000000000313     
   20.000000000001180     
   396.43310635286474     
   378.07546292030327     
   20.000000000000000     
   20.000000000000000     
   20.000000000000000     
   1576.3464150760751     
   20.000000000000000     
   20.000000000000000     
   20.000000000000000     
   20.000000000000000     
   20.000000000000000     
   20.000000000000000     
   20.000232391668629     
   20.000000000000000     
   20.000000000000000     
   20.000000000029967     
   20.000000000130498     
   20.000000000000000     
   20.000000000235062     
   20.000000000000000     
   20.000000000000000     
   20.000000000000000     
   1521.8278041014396     
   20.000000000000000     
   20.000000000000000     
   20.000000000000000     
   20.000000000000000     
   20.000000000000000     
   20.000000000000000     
   20.000000000000000     
   49.320649621231595     
   20.000000000000000     
   20.000000000000000     
   23.685489630556344     
   20.000000000000000     
   20.331906533594381     
   20.000000000000000     
   20.000000000000000     
   48.797858508485021     
   20.000000000000000     
   574.18484788361138     
   20.000000000000000     
   20.000000000000000     
   20.000865502787228     
   20.000000000000000     
   526.25160804635163     
   20.000000000000000     
   20.000025219481277     
   20.000000000000000     
   20.000000000000000     
   20.000000000000000     
   23.665201358854830     
   20.000000000000000     
   29.930950411946451     
   28.937706067457356     
   20.000000000000000     
   20.000000000000000     
   20.000000000000000     
   20.000000000000000     
   20.000000000000000     
   20.000000000000000     
   20.000000391311957     
   102.36687472804414     
   20.000000015602286     
   20.000000000000000     
   20.000000000000000     
   20.000000000000000     
   21.168091570097911     
   20.000000000172044     
   21.021399871632692     
   20.000000000000000     
   20.000000000000000     
   20.000000000000000     
   20.000000000000000     
   20.330422945159665     
   20.000000000001393     
   30.305514209923956     
   20.000000000000000     
   20.000000000000000     
   20.000000000000000     
   20.000000000000000     
   20.000000000000000     
   20.000000000000000     
   103.41694845053394     
   20.000000000000000     
   20.000000000000000     
   20.000000000000000     
   20.000000000000000     
   20.096558967928623     
   1124.1070161446310     
   20.080803651392657     
   781.71905233306256     
   170.04047896390210     
   21.121282354223389     
   20.000000000000000     
   20.000000000000000     
   20.000000000000000     
   181.77791825207240     
   20.000000000000000     
   20.000000000000000     
   20.000000000000000     
   20.000000000000000     
   30.387740111063735     
   20.000000000000000     
   20.005472687290077     
   20.004560791654981     
   20.000000000000000     
   20.000000000000000     
   20.082304478430583     
   20.000000000000000     
   20.000000000000000     
   20.000000000000000     
   20.000000000000000     
   20.000278513912836     
   20.000858850731220     
   20.000000000000000     
   20.000000000063494     
   20.000000000000000     
   20.000000000000000     
   36.326786843078132     
   21.127234352504853     
   20.000000000000000     
   20.000000000000000     
   20.000000000000000     
   20.000025103040109     
   20.000148058236242     
   20.000000000000000     
   765.51156478593543     
   20.000000000000000     
   20.081662961434752     
   20.000000000000000     
   22.506254527272088     
   22.220861267079037     
   20.000003605749768     
   20.000000000000000     
   20.000008325385291     
   20.000000000000000     
   20.000000000000000     
   20.000000000000000     
   20.001519487448530     
   20.000000000000000     
   38.381032151109032     
   20.000000000000000     
   20.000000099077539     
   20.000000084815476     
   20.000000128942503     
   20.000000000000000     
   250.07887173509170     
   20.000000000000000     
   20.000000000000000     
   20.000000000000000     
   20.000000015480918     
   20.000000000000000     
   20.228981124022205     
   20.000000000000000     
   20.000000000000000     
   20.000000000000000     
   20.199450392767421     
   20.000000002143107     
   20.000000000000000     
   20.000000000000000     
   20.000000000000000     
   20.000000000000000     
   20.000000001640558     
   20.000000000000000     
   20.000000000000000     
   20.000000000000000     
   20.000000000000000     
   20.000000000000000     
   20.000000000000000     
   20.000000000000000     
   20.000000000170377     
   20.000000000000000     
   20.000000000000000     
   20.001103631409300     
   20.000000000000000     
   20.000149058885093     
   20.000000000000000     
   20.000000000000000     
   20.000000000000000     
   20.000000000000000     
   20.000000000000000     
   20.000000000000000     
   20.000000000001368     
   20.000000000000000     
   20.000000000015429     
   20.000000000000000     
   20.000000000000000     
   20.000000000000000     
   20.000000000000000     
   20.000000000000000     
   20.000004141674879     
   20.000003562517541     
   48.201816910302753     
   20.000000000000306     
   20.001542697284975     
   20.014389756958842     
   1205.2028159879244     
   20.012349376863533     
   20.000000000000000     
   20.000000000000000     
   20.000000000000000     
   20.000000000000000     
   20.000000000000000     
   20.000000000000110     
   1252.1194917523039     
   20.000000000000000     
   20.000000000000000     
   20.000000000000000     
   20.000000000000000     
   20.000000000000000     
   20.000000000000000     
   317.28633923856262     
   262.78739935486595     
   20.000000000000000     
   20.000000000000000     
   20.000000000000000     
   20.000000000000000     
   20.000000000000000     
   20.000000000000000     
   1212.4120475879954     
   20.000000128704819     
   20.000000000000000     
   20.000000000000000     
   20.000000000000000     
   20.000000000000000     
   20.000000000000000     
   20.000000000000000     
   20.000000000000000     
   1007.8756689011911     
   1085.7746440939682     
   20.000000000000000     
   920.30575920983551     
   20.000000000000000     
   20.000000000000000     
   1066.9180107860652     
   20.000000000000000     
   20.000005936868202     
   517.19932547321798     
   1075.4930872233174     
   20.000000000000000     
   20.000000001656037     
   20.000000000000000     
   20.000000000000000     
   20.000000000000000     
   20.000000000000000     
   20.000000000000000     
   20.000000000000000     
   20.000000000000000     
   20.000000000000000     
   540.14611993688402     
   20.000000000015483     
   20.000000000000000     
   251.43783190619899     
   20.000000000000000     
   20.000000000000000     
   20.000000000000178     
   20.000000000000000     
   20.000000000000000     
   20.000000000000000     
   800.11246732195320     
   20.000000000000000     
   1023.8491476099068     
   674.70249520644381     
   20.000000000000000     
   20.000000000000000     
   1153.4785972232507     
   20.000004175847884     
   51.946256225689346     
   20.000000000000000     
   20.000000000000000     
   20.000000000000000     
   20.000000000000000     
   376.35587473069057     
   20.000000000000000     
   20.000000000000000     
   20.000000000000000     
   20.000000000000000     
   20.000000000000000     
   959.82800559677924     
   553.46676091481311     
   20.000000000000000     
   20.000000000000000     
   20.000767401738383     
   745.41391896455707     
   20.000000000000000     
   20.000000000000000     
   899.93800821365767     
   869.10843847234992     
   20.000000000000000     
   20.000000000000000     
   577.71204819976117     
   20.000000000000000     
   20.000000000000000     
   20.000000000000000     
   20.000000000000000     
   477.55008165871351     
   20.000000000000000     
   20.000000000000000     
   20.000000000000000     
   20.000000570546796     
   20.000000289225174     
   20.000000000000000     
   20.000000000000000     
   20.000000000000000     
   20.000000000000000     
   711.35566560150278     
   20.000000000000000     
   591.40363738212841     
   20.000000000000000     
   403.34646809250881     
   20.000000000000000     
   499.65546766498557     
   328.79570262907919     
   659.33180812324576     
   815.40541365500371     
   531.59159143147963     
   20.000000000000000     
   20.000000000000000     
   20.000000000000000     
   462.60552072111801     
   348.81547870647330     
   281.76730496966024     
   274.49043346756486     
   634.04251784146550     
   220.45118837507681     
   20.000000000000000     
   20.000000000000000     
   20.000000000000000     
   20.000000000000000     
   985.99470965987814     
   364.79153848360272     
   414.83221739834050     
   446.98330714289489     
   212.06187907144957     
   237.21011681449173     
   20.000000000000000     
   20.000000000000000     
   20.000000000000000     
   106.54761312065396     
   305.71182142213979     
   107.40291894194290     
   20.000000000000000     
   20.000000000000000     
   20.000000000000000     
   184.16570680972350     
   106.77798739597286     
   246.75048773203321     
   20.000000000000000     
   133.85224575194269     
   187.75310263851449     
   20.000000000000000     
   20.000000000000000     
   165.64738008502164     
   20.000000000000000     
   20.000000000000000     
   121.29532793298407     
   20.000000000000000     
   20.000000000000000     
   20.000000000000000     
   20.000000000000000     
   145.00543142231092     
   78.750720658547408     
   95.158265177253782     
   20.000000000000000     
   52.752188064638617     
   63.121362793540840     
   20.000000000000000     
   20.000000000000000     
   20.000000000000000     
   20.000000000000000     
   203.68463880207568     
   20.000000000000000     
   20.000000000000000     
   20.000000000000000     
   20.000000000000000     
   51.861223043997704     
   20.000000000000000     
   20.000000000000000     
   54.035389491827758     
   20.000000000000000     
   20.000000000000000     
   20.000000000000000     
   20.000000000000000     
   20.000000000000000     
   20.000000000000000     
   20.000000000000000     
   20.000000000000000     
   20.000000000000000     
   20.000000000000000     
   20.000000000000000     
   20.000000000000000     
   20.000000000000000     
   20.000000000000000     
   20.000000000000000     
   20.000000000000000     
   20.000000000000000     
   20.000000000000000     
   20.000000000000000     
   20.000000000000000     
   20.000000000000000     
   20.000000000000000     
   20.000000000000000     
   20.000000000000000     
   20.000000000000000     
   20.000000000000000     
   20.000000000000000     
   20.000000000000000     
   20.000000000000000     
   20.000000000000000     
   20.000000000000000     
   20.000000000000000     
   20.000000000000000     
   20.000000000000000     
   20.000000000000000     
   20.000000000000000     
   20.000000000000000     
   46.677628883244488     
   20.000000000000000     
   20.000000000000000     
   20.000000000000000     
   20.000000000000000     
   20.000000000000000     
   20.000000000000000     
   20.000000000000000     
   20.000000000000000     
   20.000000000000000     
   20.000000000000000     
   20.000000000000149     
   20.000000000000000     
   20.000000000000000     
   20.000000000000000     
   20.000000000000000     
   20.000000000000000     
   20.000000000000000     
   20.000000000016353     
   20.000000000000259     
   20.000000000000103     
   20.000000000003254     
   20.000000000000608     
   20.000000000000000     
   20.000000000055998     
   20.000000000023331     
   20.000000000001979     
   20.000000000010573     
   20.000000001759620     
   20.000000000036508     
   20.000000000016438     
   20.000000000392475     
   20.000000000080718     
   20.000000000001386     
   26.112025740450250     
   26.877844704255612     
   28.376866200589976     
   20.000000000004718     
   20.000000007593393     
   20.398454154075420     
   29.525819294252887     
   20.304926301095662     
   20.188979977224324     
   20.620606453743907     
   20.000000135273506     
   35.087891941559548     
   23.452200349803366     
   35.750893636073506     
   20.000000003705637     
   20.000000001763787     
   20.009763064628199     
   23.379928356424813     
   20.126348252300691     
   20.009281244863182     
   20.310277666846027     
   20.000000000177305     
   20.076225543375244     
   29.891622040050368     
   20.000000016219524     
   20.000000033709586     
   33.945855075323500     
   21.621501189737753     
   21.029979011311315     
   20.183120472044187     
   20.000066087280477     
   20.156608372820347     
   20.000001937466376     
   20.000001759301650     
   20.016474855260899     
   20.000112587171806     
   42.999900827586579     
   20.000000265543431     
   20.000000134295821     
   24.721902947695437     
   20.000003327491854     
   24.575553838754548     
   20.010917309274863     
   20.912526654506909     
   20.000111084338389     
   20.998218302035784     
   21.380727314727356     
   20.700501983018185     
   27.661880924978345     
   20.000000509578882     
   20.454287986225850     
   20.019926463674587     
   20.029670092750781     
   32.586136705274612     
   20.089621950884410     
   37.820927155029189     
   20.005271234422008     
   20.005855261807323     
   20.010584372225857     
   22.256684207077271     
   38.385514944276750     
   20.000133048335318     
   21.463317567634107     
   56.707369152090891     
   20.000000000000000     
   20.006213897867145     
   20.006567718299824     
   71.479130269169730     
   20.000000000000000     
   20.000000000000000     
   20.001331525092958     
   20.000001031946571     
   20.017285085951109     
   20.280836685629730     
   181.78517174078573     
   82.760083789588890     
   40.727014237826189     
   47.978612474515032     
   22.895346301418350     
   20.282150532877644     
   20.018954506023530     
   20.000885548445005     
   20.000027727586446     
   20.000000619370272     
   20.000000010100948     
   20.000000000115804     
   20.000000000000917     
   20.000000000000000     
   20.000000000000000     
   20.000000000000000     
   20.000000000000000     
   20.000000000000000     
   20.000000000000000     
   20.000000000000000     
   20.000000000000000     
   20.000000000000000     
   20.000000000000000     
   20.000000000000000     
   20.000000000000000     
   20.000000000000000     
   20.000000000000000     
   20.000000000000000     
   20.000000000000000     
   20.000000000000000     
   20.000000000000000     
   20.000000000000000     
   20.000000000000000     
   20.000000000000000     
   20.000000000000000     
   20.000000000000000     
   20.000000000000000     
   20.000000000000000     
   20.000000000000000     
   20.000000000000000     
   20.000000000000000     
   20.000000000000000     
   20.000000000000000     
   20.000000000000000     
   20.000000000000000     
   20.000000000007443     
   20.000000000843173     
   20.000000067815460     
   20.000003902826567     
   20.000158285179857     
   20.004477741745305     
   20.012592626093703     
   20.007417709760620     
   20.034195130430192     
   20.087929519759111     
   21.178187603798129     
   30.764098211483812     
   86.806509567771627     
   20.018322358902537     
   22.194453286632413     
   23.117081955420904     
   20.440808990395148     
   20.000000000000000     
   20.048346372036772     
   29.217544680915111     
   20.001264831871111     
   20.114407512797822     
   20.000076589300352     
   20.000000000000000     
   20.000255881308028     
   20.045219248141183     
   26.434875270161776     
   20.002170726116674     
   43.635154836161405     
   20.000041164393828     
   20.003807675185122     
   20.652533099526380     
   20.164158165308297     
   20.000768770141175     
   20.073815257267263     
   20.000227424378277     
   20.000236445162695     
   20.000073781380262     
   20.000800046641285     
   20.000422664967896     
   20.265738895740995     
   32.029471446366230     
   21.853711227079469     
   20.053477559924264     
   20.000138050196814     
   20.000005884972492     
   20.000777642999150     
   20.109064207629025     
   20.003857628612238     
   20.000436493824196     
   20.002331716846150     
   20.000012033835450     
   20.028755232415300     
   20.000022908670196     
   20.000023448413334     
   20.000005996510374     
   20.000021472783502     
   20.000011897186994     
   20.834977424257630     
   20.000040518472943     
   21.137223929925870     
   20.000000896943071     
   20.000006737939106     
   20.061313352512041     
   20.000003298251585     
   20.000000027342857     
   20.000001515624263     
   20.043435880794167     
   20.026036806676071     
   20.067323189126729     
   20.000000877065148     
   20.000000106848230     
   21.957075688585387     
   20.000000049600491     
   24.108585003899215     
   20.000000428852388     
   20.000000236005672     
   20.000000000317364     
   20.000000094498080     
   20.000000109485402     
   22.983960929863922     
   20.000000051658965     
   20.000000057986657     
   20.000000014452716     
   20.000000027425134     
   20.000000000625544     
   20.000000014001962     
   20.000000001363105     
   20.000000006557748     
   20.000000003263011     
   20.000000001512142     
   20.000000000002689     
   20.000000000159101     
   20.000000000716135     
   20.000000000321865     
   20.000000000155040     
   20.000000000005844     
   20.000000000012957     
   20.000000000068965     
   20.000000000032426     
   20.000000000014214     
   20.000000000000000     
   20.000000000001272     
   20.000000000006356     
   20.000000000002686     
   20.000000000001215     
   20.000000000000092     
   20.000000000000199     
   20.000000000000565     
   20.000000000000298     
   20.000000000000192     
   20.000000000000000     
   20.000000000000000     
   20.000000000000082     
   20.000000000000000     
   20.000000000000000     
   20.000000000000000     
   20.000000000000000     
   20.000000000000000     