# vtk DataFile Version 2.0
 temperature
 ASCII
 DATASET UNSTRUCTURED_GRID
 POINTS         773  double
   0.0000000000000000        0.0000000000000000        0.0000000000000000     
   3.5000000000000000        0.0000000000000000        0.0000000000000000     
   3.5000000000000000        40.000000000000000        0.0000000000000000     
   0.0000000000000000        40.000000000000000        0.0000000000000000     
  0.43750000000000000        0.0000000000000000        0.0000000000000000     
  0.87500000000000000        0.0000000000000000        0.0000000000000000     
   1.3125000000000000        0.0000000000000000        0.0000000000000000     
   1.7500000000000000        0.0000000000000000        0.0000000000000000     
   2.1875000000000000        0.0000000000000000        0.0000000000000000     
   2.6250000000000000        0.0000000000000000        0.0000000000000000     
   3.0625000000000000        0.0000000000000000        0.0000000000000000     
   3.5000000000000000       0.50000000000000000        0.0000000000000000     
   3.5000000000000000        1.0000000000000000        0.0000000000000000     
   3.5000000000000000        1.5000000000000000        0.0000000000000000     
   3.5000000000000000        2.0000000000000000        0.0000000000000000     
   3.5000000000000000        2.5000000000000000        0.0000000000000000     
   3.5000000000000000        3.0000000000000000        0.0000000000000000     
   3.5000000000000000        3.5000000000000000        0.0000000000000000     
   3.5000000000000000        4.0000000000000000        0.0000000000000000     
   3.5000000000000000        4.5000000000000000        0.0000000000000000     
   3.5000000000000000        5.0000000000000000        0.0000000000000000     
   3.5000000000000000        5.5000000000000000        0.0000000000000000     
   3.5000000000000000        6.0000000000000000        0.0000000000000000     
   3.5000000000000000        6.5000000000000000        0.0000000000000000     
   3.5000000000000000        7.0000000000000000        0.0000000000000000     
   3.5000000000000000        7.5000000000000000        0.0000000000000000     
   3.5000000000000000        8.0000000000000000        0.0000000000000000     
   3.5000000000000000        8.5000000000000000        0.0000000000000000     
   3.5000000000000000        9.0000000000000000        0.0000000000000000     
   3.5000000000000000        9.5000000000000000        0.0000000000000000     
   3.5000000000000000        10.000000000000000        0.0000000000000000     
   3.5000000000000000        10.500000000000000        0.0000000000000000     
   3.5000000000000000        11.000000000000000        0.0000000000000000     
   3.5000000000000000        11.500000000000000        0.0000000000000000     
   3.5000000000000000        12.000000000000000        0.0000000000000000     
   3.5000000000000000        12.500000000000000        0.0000000000000000     
   3.5000000000000000        13.000000000000000        0.0000000000000000     
   3.5000000000000000        13.500000000000000        0.0000000000000000     
   3.5000000000000000        14.000000000000000        0.0000000000000000     
   3.5000000000000000        14.500000000000000        0.0000000000000000     
   3.5000000000000000        15.000000000000000        0.0000000000000000     
   3.5000000000000000        15.500000000000000        0.0000000000000000     
   3.5000000000000000        16.000000000000000        0.0000000000000000     
   3.5000000000000000        16.500000000000000        0.0000000000000000     
   3.5000000000000000        17.000000000000000        0.0000000000000000     
   3.5000000000000000        17.500000000000000        0.0000000000000000     
   3.5000000000000000        18.000000000000000        0.0000000000000000     
   3.5000000000000000        18.500000000000000        0.0000000000000000     
   3.5000000000000000        19.000000000000000        0.0000000000000000     
   3.5000000000000000        19.500000000000000        0.0000000000000000     
   3.5000000000000000        20.000000000000000        0.0000000000000000     
   3.5000000000000000        20.500000000000000        0.0000000000000000     
   3.5000000000000000        21.000000000000000        0.0000000000000000     
   3.5000000000000000        21.500000000000000        0.0000000000000000     
   3.5000000000000000        22.000000000000000        0.0000000000000000     
   3.5000000000000000        22.500000000000000        0.0000000000000000     
   3.5000000000000000        23.000000000000000        0.0000000000000000     
   3.5000000000000000        23.500000000000000        0.0000000000000000     
   3.5000000000000000        24.000000000000000        0.0000000000000000     
   3.5000000000000000        24.500000000000000        0.0000000000000000     
   3.5000000000000000        25.000000000000000        0.0000000000000000     
   3.5000000000000000        25.500000000000000        0.0000000000000000     
   3.5000000000000000        26.000000000000000        0.0000000000000000     
   3.5000000000000000        26.500000000000000        0.0000000000000000     
   3.5000000000000000        27.000000000000000        0.0000000000000000     
   3.5000000000000000        27.500000000000000        0.0000000000000000     
   3.5000000000000000        28.000000000000000        0.0000000000000000     
   3.5000000000000000        28.500000000000000        0.0000000000000000     
   3.5000000000000000        29.000000000000000        0.0000000000000000     
   3.5000000000000000        29.500000000000000        0.0000000000000000     
   3.5000000000000000        30.000000000000000        0.0000000000000000     
   3.5000000000000000        30.500000000000000        0.0000000000000000     
   3.5000000000000000        31.000000000000000        0.0000000000000000     
   3.5000000000000000        31.500000000000000        0.0000000000000000     
   3.5000000000000000        32.000000000000000        0.0000000000000000     
   3.5000000000000000        32.500000000000000        0.0000000000000000     
   3.5000000000000000        33.000000000000000        0.0000000000000000     
   3.5000000000000000        33.500000000000000        0.0000000000000000     
   3.5000000000000000        34.000000000000000        0.0000000000000000     
   3.5000000000000000        34.500000000000000        0.0000000000000000     
   3.5000000000000000        35.000000000000000        0.0000000000000000     
   3.5000000000000000        35.500000000000000        0.0000000000000000     
   3.5000000000000000        36.000000000000000        0.0000000000000000     
   3.5000000000000000        36.500000000000000        0.0000000000000000     
   3.5000000000000000        37.000000000000000        0.0000000000000000     
   3.5000000000000000        37.500000000000000        0.0000000000000000     
   3.5000000000000000        38.000000000000000        0.0000000000000000     
   3.5000000000000000        38.500000000000000        0.0000000000000000     
   3.5000000000000000        39.000000000000000        0.0000000000000000     
   3.5000000000000000        39.500000000000000        0.0000000000000000     
   3.0625000000000000        40.000000000000000        0.0000000000000000     
   2.6250000000000000        40.000000000000000        0.0000000000000000     
   2.1875000000000000        40.000000000000000        0.0000000000000000     
   1.7500000000000000        40.000000000000000        0.0000000000000000     
   1.3125000000000000        40.000000000000000        0.0000000000000000     
  0.87500000000000000        40.000000000000000        0.0000000000000000     
  0.43750000000000000        40.000000000000000        0.0000000000000000     
   0.0000000000000000        39.500000000000000        0.0000000000000000     
   0.0000000000000000        39.000000000000000        0.0000000000000000     
   0.0000000000000000        38.500000000000000        0.0000000000000000     
   0.0000000000000000        38.000000000000000        0.0000000000000000     
   0.0000000000000000        37.500000000000000        0.0000000000000000     
   0.0000000000000000        37.000000000000000        0.0000000000000000     
   0.0000000000000000        36.500000000000000        0.0000000000000000     
   0.0000000000000000        36.000000000000000        0.0000000000000000     
   0.0000000000000000        35.500000000000000        0.0000000000000000     
   0.0000000000000000        35.000000000000000        0.0000000000000000     
   0.0000000000000000        34.500000000000000        0.0000000000000000     
   0.0000000000000000        34.000000000000000        0.0000000000000000     
   0.0000000000000000        33.500000000000000        0.0000000000000000     
   0.0000000000000000        33.000000000000000        0.0000000000000000     
   0.0000000000000000        32.500000000000000        0.0000000000000000     
   0.0000000000000000        32.000000000000000        0.0000000000000000     
   0.0000000000000000        31.500000000000000        0.0000000000000000     
   0.0000000000000000        31.000000000000000        0.0000000000000000     
   0.0000000000000000        30.500000000000000        0.0000000000000000     
   0.0000000000000000        30.000000000000000        0.0000000000000000     
   0.0000000000000000        29.500000000000000        0.0000000000000000     
   0.0000000000000000        29.000000000000000        0.0000000000000000     
   0.0000000000000000        28.500000000000000        0.0000000000000000     
   0.0000000000000000        28.000000000000000        0.0000000000000000     
   0.0000000000000000        27.500000000000000        0.0000000000000000     
   0.0000000000000000        27.000000000000000        0.0000000000000000     
   0.0000000000000000        26.500000000000000        0.0000000000000000     
   0.0000000000000000        26.000000000000000        0.0000000000000000     
[...]
 CELL_DATA        1368
 SCALARS T double
 LOOKUP_TABLE default
   20.088755501344984     
   21.115832230924958     
   1665.9655563234708     
   31.922407329674360     
   20.000000000015479     
   20.230784405354278     
   1270.3455637618206     
   20.198937575311291     
   20.003926738378940     
   20.155543028627854     
   20.007676053886687     
   27.459677011009163     
   20.129445321382789     
   32.968921770492464     
   28.243755036258818     
   1203.0825478197482     
   1666.8666216626771     
   20.021853686622251     
   20.018213959060262     
   20.396132404529329     
   20.014013066986198     
   20.000228181775853     
   1728.9636260514533     
   20.000485307509312     
   20.072413567423865     
   21.173691697631032     
   20.010996812144775     
   20.284717121778204     
   20.101464018155760     
   20.004834912670930     
   20.417840347891854     
   20.000000000038774     
   20.927669480631067     
   21.249697674266368     
   21.295705758793279     
   20.000000000029569     
   20.039239522178860     
   20.001522554399038     
   20.008952140303290     
   20.001240914402874     
   20.000692312161970     
   20.134828829670514     
   20.000924133010461     
   31.634921588645597     
   20.027606417852166     
   390.09241312322291     
   383.06330055934274     
   20.102184237980762     
   20.150831502479488     
   677.85303178292236     
   680.59541786081979     
   20.006037552353419     
   20.042315358075918     
   20.000000000027214     
   1701.8229770884780     
   20.000000000021924     
   20.000000000111086     
   20.000174936177565     
   20.000082326297417     
   20.000293548531868     
   20.000000000165784     
   30.968656387049801     
   20.000566487889493     
   20.000000000482213     
   20.323966231174026     
   20.453148516739862     
   20.002852287049734     
   20.457220774301682     
   20.008471596840764     
   20.013094865566917     
   20.000000000081222     
   1668.9128967446127     
   20.000000000229317     
   20.011831538899393     
   20.001950334054378     
   20.003200351014470     
   20.000000000907455     
   20.000000003757084     
   20.000000000057561     
   364.87135135060902     
   20.000371072427409     
   20.000067617547813     
   205.88429601496077     
   20.000026947274335     
   116.90366741551674     
   20.031215204890508     
   20.046357058516833     
   361.28534128105491     
   20.000133886159457     
   844.10036708361747     
   20.000515593060197     
   20.000849928218603     
   42.202378363833361     
   20.000000027087861     
   788.26333437252174     
   20.000006160208915     
   29.656146341564551     
   20.000000006856091     
   20.000009106668543     
   20.000000001341864     
   204.52687567914970     
   20.000000000669328     
   187.98392884557410     
   189.62008599289402     
   20.000755214842464     
   20.000111295688473     
   20.000000000056069     
   20.003326520354399     
   20.000000000041229     
   20.000000001789019     
   22.515101846996131     
   480.49391474263109     
   21.732511636851964     
   20.000002544204456     
   20.000000000340702     
   20.000000000015799     
   110.13163824702930     
   20.619519404157579     
   110.72915867705566     
   20.000000578517341     
   20.000000000671243     
   20.000002280712430     
   20.000054667711986     
   116.18646570716237     
   20.206894570606678     
   264.34806272877790     
   20.002224290927721     
   20.003412649214820     
   20.000036842262887     
   20.048936370455387     
   20.000000000081428     
   20.000003484254254     
   490.00728014368121     
   20.063647387166014     
   20.000000005133217     
   20.000000048510522     
   20.018040537747769     
   66.287071188653968     
   1310.5657478602168     
   66.521792487434638     
   996.12428013583860     
   458.06352379533428     
   150.51450389069169     
   20.000004504095333     
   20.000021338395417     
   20.000000502756375     
   480.32017132638572     
   20.000012290667744     
   20.000000002690154     
   20.000000005163557     
   20.000000567723252     
   267.67951921264893     
   20.000018564336226     
   42.398122685146198     
   42.432326235596136     
   20.000000009989407     
   20.000000436301931     
   85.956392159078391     
   20.000048473714624     
   20.000000036315758     
   20.000000013230490     
   20.000000000330846     
   29.534775978841587     
   41.997816954210926     
   20.000188435197714     
   20.332991517010683     
   20.000000036691748     
   20.000000000014175     
   217.25600394766087     
   152.27826401977848     
   20.000001640039692     
   20.000000176599759     
   20.000000019472701     
   29.574465255841151     
   34.191860531674308     
   20.000000303992547     
   999.64245180502780     
   20.033301745123904     
   86.615712862769001     
   20.000000069647303     
   135.85456617948296     
   128.73778793865742     
   25.959120632090553     
   20.000000090400377     
   25.392250528503592     
   20.000000705843682     
   20.000040484662581     
   20.000069212999549     
   40.129036529759389     
   20.000000000053941     
   231.25791016795395     
   20.002406714619642     
   21.702061239376842     
   21.680083288060416     
   22.647196899619221     
   20.000000000024563     
   557.27988665611338     
   20.000001001375143     
   20.000000000048651     
   20.000000130982887     
   21.696011180671782     
   20.000000243539048     
   80.385409113334418     
   20.000013746498734     
   20.000023676588405     
   20.000001919341919     
   76.451377864193532     
   20.797502620637545     
   20.000000168252264     
   20.000000000065967     
   20.000000312533533     
   20.000000000151537     
   20.972990984319097     
   20.000000000021423     
   20.000002477074126     
   20.000000095037482     
   20.000006023212954     
   20.000015610083057     
   20.003663287575222     
   20.000000445552121     
   20.606095683505504     
   20.000000000074625     
   20.000039790467493     
   38.609106119411187     
   20.000007875690393     
   34.408543665250946     
   20.000007787018561     
   20.000000050798302     
   20.000000000038192     
   20.000000068905788     
   20.000001083581076     
   20.000000000109868     
   20.202125416940461     
   20.000000002610097     
   20.335073421269556     
   20.000000036826773     
   20.000031785062461     
   20.000000000042338     
   20.062135429134312     
   20.000040569964387     
   24.547956599777642     
   26.029968686007230     
   292.11101763633394     
   20.089371690731813     
   37.658155569226004     
   49.771712120860606     
   1422.4959477807913     
   47.747291093537122     
   20.017611460622341     
   20.000000026906974     
   20.000000007339050     
   20.000155729899078     
   20.000001057366855     
   20.106886167995274     
   1502.2819658497626     
   20.000000005217714     
   20.000000019455541     
   20.000000127524569     
   20.000196009282643     
   20.000001369948709     
   20.000000000183288     
   711.13768991435006     
   550.83993116126851     
   20.000705340735191     
   20.000077817766353     
   20.000007115486127     
   20.031544942584137     
   20.000000000146088     
   20.000876594212752     
   1446.7587459185818     
   22.713192667391471     
   20.007493358096347     
   20.000000753255293     
   20.000001429696276     
   20.000000786340053     
   20.000000000167923     
   20.002958299576470     
   20.000000000153026     
   1361.5696834807172     
   1183.6195086555451     
   20.000000000014378     
   1234.0785419924446     
   20.000000000208750     
   20.003629845958486     
   1351.0067385755249     
   20.000062746040598     
   24.110416661819880     
   846.36363691451186     
   1373.0395420880573     
   20.000000001222496     
   21.002697439901301     
   20.000000000028937     
   20.000000014195646     
   20.000000781163244     
   20.000001429586057     
   20.000000003791154     
   20.000000000061267     
   20.000000001349701     
   20.000000000050651     
   897.48063048025904     
   20.345504590833666     
   20.000000010102390     
   627.65698864066201     
   20.000000000044466     
   20.000000002662599     
   20.110328627923774     
   20.032574957192057     
   20.000000000016527     
   20.000000000030315     
   1155.2523436647443     
   20.000000000119243     
   1275.3626806088803     
   1046.8956386891655     
   20.000001271156339     
   20.000000916040840     
   1461.5388988129787     
   23.814494197449854     
   297.61215042510401     
   20.000460622707628     
   20.000000000052069     
   20.000000000028944     
   20.000000000166388     
   752.48850127574997     
   20.000000275896017     
   20.000000000096154     
   20.000000019077238     
   20.000000211487109     
   20.000018421544226     
   1298.7584745430997     
   751.80600642714853     
   20.000000000059096     
   20.000000000118860     
   35.033630110963898     
   1173.0373180600739     
   20.000000232939595     
   20.000000000340449     
   1195.4336566514226     
   1265.3759909720497     
   20.000023308270592     
   20.000003422070300     
   980.45843257839965     
   20.000000000099860     
   20.000000001439513     
   20.000000000497280     
   20.000000000725240     
   883.80240397873251     
   20.000004386082633     
   20.000000000982240     
   20.000000001644008     
   23.149735223542770     
   22.232988057635243     
   20.000000000480721     
   20.000000000090242     
   20.000045980681108     
   20.000000000240192     
   1115.2116493882957     
   20.000000000949132     
   1010.4376461069118     
   20.000000000310600     
   828.37113934911224     
   20.000000000076188     
   943.47607009681803     
   745.48160162954628     
   1010.0761885689019     
   1184.7728408777864     
   1002.9431177036823     
   20.000000000221167     
   20.000000000083876     
   20.000000000241979     
   845.15945128589124     
   803.78050701067707     
   724.86296606634517     
   698.92126268179425     
   1088.4082303045930     
   626.62634842382545     
   20.000000238929996     
   20.000000000365247     
   20.000000002413945     
   20.000000001952380     
   1219.1326528193974     
   850.47927440318108     
   859.23399398234835     
   930.11425486890107     
   595.08181350673988     
   680.95493207869436     
   20.000000001920327     
   20.000000001337845     
   20.000000012020731     
   513.39644946795897     
   790.68066452349387     
   511.73086961803352     
   20.000000003217917     
   20.000000025572476     
   20.000000037959296     
   589.78156289257345     
   434.20962980561683     
   722.10955147404115     
   20.000000010514416     
   564.49045073751029     
   609.97122243120839     
   20.000000002809930     
   20.000000017571505     
   614.02015693898011     
   20.000000071137880     
   20.000000019899666     
   495.93018089009598     
   20.000000048263885     
   20.000000014185570     
   20.000000010032409     
   20.000000081374722     
   524.96573309897644     
   413.92853737363356     
   439.34003851935165     
   20.000000003659530     
   344.15636252661784     
   367.27293459437237     
   20.000000181356292     
   20.000000247500964     
   20.000000005492929     
   20.000000266341196     
   668.99153566311566     
   20.000000818302318     
   20.000001079406083     
   20.000001490158652     
   20.000000352446232     
   268.91301201112879     
   20.000000615929896     
   20.000000452978462     
   357.34606191659901     
   20.000001506126143     
   20.000000827802968     
   20.000000007020105     
   20.000002941506946     
   20.000002550038602     
   20.000001788906221     
   20.000004741399874     
   20.000001120435829     
   20.000014615495346     
   20.000018902310789     
   20.000075464477920     
   20.000043923452893     
   20.000033724319412     
   20.000057686973637     
   20.000125622677064     
   20.000575749866591     
   20.000164692769808     
   20.000126696235832     
   20.000355122803171     
   20.000213063354703     
   20.002443916151048     
   20.000744850892392     
   20.000580531495224     
   20.001547093248700     
   20.000951489363828     
   20.001300602805735     
   20.000274665732888     
   20.002087534810375     
   20.001535861637908     
   20.000964330896000     
   20.000802841363974     
   20.009561459335632     
   20.003119920730587     
   20.002463530639783     
   20.006242021869273     
   20.003935205078523     
   20.001210926152236     
   342.96340336005869     
   20.034798037439302     
   20.012111739555749     
   20.009665812799259     
   20.023184182242254     
   20.014981449272806     
   20.004944643407203     
   20.029253248204014     
   20.021445508088643     
   20.012086372942196     
   20.018621950654769     
   20.117267128812284     
   20.043470958248594     
   20.035157974066028     
   20.080121919200504     
   20.053288710765244     
   20.018703972535668     
   20.014243636892637     
   20.366512386386969     
   20.144571277724683     
   20.118439494058574     
   20.256549730642838     
   20.175043490898481     
   20.065418950494077     
   20.288690464654792     
   20.221465062617067     
   20.134149771705861     
   20.196681672242729     
   21.062967876642109     
   20.445906929244689     
   20.370003490272172     
   20.763081345063359     
   20.532099265926419     
   20.212140699125779     
   201.75346288559103     
   230.48389701787457     
   213.67870074679436     
   20.154116103637428     
   21.500209144282689     
   102.65635965002903     
   247.63325589181815     
   109.27618202570947     
   97.586866915010077     
   115.86603459582587     
   22.864664951333364     
   238.10500827994008     
   196.03021065257425     
   254.96812998647209     
   21.276917545070361     
   21.072763748940023     
   52.075380472087851     
   191.35096546031096     
   91.131374873511632     
   49.574622702603314     
   111.65767009101820     
   20.638299843452415     
   81.376006500019514     
   204.73380037302124     
   21.789194330181353     
   22.109154642707018     
   279.67604217014963     
   159.75898354204699     
   141.30460100483933     
   94.251674951538675     
   29.909423959502284     
   80.672833327198489     
   25.333489789276911     
   24.858149353102668     
   57.654369675940728     
   30.840526500692174     
   292.53998629910268     
   23.393883644711433     
   22.888678160289764     
   205.61295748012540     
   25.510638153392399     
   197.81794840672580     
   57.873418316403836     
   123.20286903297750     
   30.211109854351317     
   136.34851779886063     
   138.75924966429670     
   131.44388119296468     
   199.02330833521842     
   23.921336127138993     
   117.60579847824589     
   67.529688288632357     
   68.509381094801739     
   255.23425491144837     
   70.382990601441492     
   287.01274926054816     
   44.852944936918064     
   49.157349876491878     
   56.149726398032954     
   170.78663258983488     
   298.48061456317134     
   32.599023785292481     
   146.52323125808857     
   247.49872291005696     
   20.000005560465869     
   51.032143051830204     
   53.989779191411294     
   291.40485645883462     
   20.000023369036004     
   20.000007865402189     
   42.669439447365534     
   24.631065038794851     
   59.943603706583289     
   101.24130258938335     
   422.39224839835379     
   296.76325926332180     
   209.14822317159243     
   239.41862654172675     
   122.60206175334235     
   74.044041257592227     
   46.990228668609326     
   32.718644215230768     
   25.624128479515328     
   22.307818671056395     
   20.890487073529599     
   20.318004039260114     
   20.105827093337254     
   20.032525163360077     
   20.009293352295000     
   20.002416592330828     
   20.000602293739131     
   20.000135199850867     
   20.000028538083889     
   20.000016686391618     
   20.000009670994658     
   20.000013636560780     
   20.000003161667657     
   20.000004498104467     
   20.000000556118362     
   20.000000090121866     
   20.000000013472654     
   20.000000001878135     
   20.000004809083332     
   20.000000000973372     
   20.000000007386102     
   20.000000051762711     
   20.000000337816900     
   20.000002028475642     
   20.000006416491193     
   20.000011222305119     
   20.000008490653766     
   20.000019548639834     
   20.000014866608925     
   20.000098416071513     
   20.000456492461691     
   20.001961015720013     
   20.007805085617868     
   20.028750328984149     
   20.098037271935542     
   20.309955139010466     
   20.909284939271000     
   22.478304803853522     
   26.288022855470953     
   34.896036676264444     
   53.091708217885788     
   62.570543552971934     
   57.278344038031008     
   74.519750245522005     
   89.060064867065677     
   156.04724775900650     
   274.09103301994662     
   472.53304404932038     
   63.758210874273992     
   164.42763325228512     
   176.04229423608749     
   113.46225900802031     
   20.000002705220211     
   75.780012876284886     
   238.37123177146543     
   41.439221126998859     
   84.365480908182391     
   31.714946131839781     
   20.000003603849699     
   35.568254072410447     
   70.776191167854805     
   212.51117016731052     
   43.892212783080772     
   306.10259137548945     
   29.929311419883909     
   48.138299663530894     
   121.61747736046524     
   85.438153347461977     
   38.685090235907239     
   78.768153409854179     
   33.278264504035207     
   34.098717765596746     
   30.725495334759820     
   40.897419178267882     
   36.592431349936952     
   96.503658640784991     
   241.77363837308869     
   137.67841594555060     
   80.769675349200639     
   33.193131957507852     
   25.638132329576223     
   40.267936665622635     
   80.500197273294830     
   49.347870008881195     
   37.355365262628737     
   46.405492438133763     
   27.442298664092910     
   66.320248643018076     
   28.812663131479148     
   29.080860417953080     
   25.938826670251359     
   28.004204387624153     
   27.145299406818705     
   115.36339631624287     
   29.535450120093508     
   118.91420770608495     
   24.082036955205798     
   26.630286682050507     
   68.213756107691893     
   25.287604737952101     
   21.603985276046554     
   24.292125128455709     
   68.019336933348043     
   60.866559122348114     
   71.994962824067471     
   23.869827859927046     
   22.214239312650427     
   147.17555024766835     
   21.786717082462221     
   177.07217164300405     
   23.214057573878545     
   22.874384746439343     
   20.577947758915155     
   21.889473809127676     
   22.339366976804481     
   167.37023452666386     
   21.694812904163822     
   22.076324283701840     
   21.566203216931267     
   21.700372964331727     
   20.654327295402201     
   21.489802262558459     
   20.807661519460037     
   21.224240028938741     
   21.069991573825099     
   20.874708950628921     
   20.191443784228106     
   20.558563246687761     
   20.757667160429193     
   20.613892276084322     
   20.531383658689585     
   20.222855344998447     
   20.275140629822090     
   20.431021593951314     
   20.372214775622400     
   20.299845784271596     
   20.059866854738143     
   20.184828482709893     
   20.256724084104686     
   20.204955341058856     
   20.175448987856971     
   20.069426689701725     
   20.088024791706559     
   20.140592100282198     
   20.119873326931970     
   20.095563528281538     
   20.017168687448258     
   20.056783557878525     
   20.080765117118357     
   20.063831933528057     
   20.053929655441852     
   20.020576445849787     
   20.025878344341848     
   20.042632770712821     