# vtk DataFile Version 2.0
 temperature
 ASCII
 DATASET UNSTRUCTURED_GRID
 POINTS         773  double
   0.0000000000000000        0.0000000000000000        0.0000000000000000     
   3.5000000000000000        0.0000000000000000        0.0000000000000000     
   3.5000000000000000        40.000000000000000        0.0000000000000000     
   0.0000000000000000        40.000000000000000        0.0000000000000000     
  0.43750000000000000        0.0000000000000000        0.0000000000000000     
  0.87500000000000000        0.0000000000000000        0.0000000000000000     
   1.3125000000000000        0.0000000000000000        0.0000000000000000     
   1.7500000000000000        0.0000000000000000        0.0000000000000000     
   2.1875000000000000        0.0000000000000000        0.0000000000000000     
   2.6250000000000000        0.0000000000000000        0.0000000000000000     
   3.0625000000000000        0.0000000000000000        0.0000000000000000     
   3.5000000000000000       0.50000000000000000        0.0000000000000000     
   3.5000000000000000        1.0000000000000000        0.0000000000000000     
   3.5000000000000000        1.5000000000000000        0.0000000000000000     
   3.5000000000000000        2.0000000000000000        0.0000000000000000     
   3.5000000000000000        2.5000000000000000        0.0000000000000000     
   3.5000000000000000        3.0000000000000000        0.0000000000000000     
   3.5000000000000000        3.5000000000000000        0.0000000000000000     
   3.5000000000000000        4.0000000000000000        0.0000000000000000     
   3.5000000000000000        4.5000000000000000        0.0000000000000000     
   3.5000000000000000        5.0000000000000000        0.0000000000000000     
   3.5000000000000000        5.5000000000000000        0.0000000000000000     
   3.5000000000000000        6.0000000000000000        0.0000000000000000     
   3.5000000000000000        6.5000000000000000        0.0000000000000000     
   3.5000000000000000        7.0000000000000000        0.0000000000000000     
   3.5000000000000000        7.5000000000000000        0.0000000000000000     
   3.5000000000000000        8.0000000000000000        0.0000000000000000     
   3.5000000000000000        8.5000000000000000        0.0000000000000000     
   3.5000000000000000        9.0000000000000000        0.0000000000000000     
   3.5000000000000000        9.5000000000000000        0.0000000000000000     
   3.5000000000000000        10.000000000000000        0.0000000000000000     
   3.5000000000000000        10.500000000000000        0.0000000000000000     
   3.5000000000000000        11.000000000000000        0.0000000000000000     
   3.5000000000000000        11.500000000000000        0.0000000000000000     
   3.5000000000000000        12.000000000000000        0.0000000000000000     
   3.5000000000000000        12.500000000000000        0.0000000000000000     
   3.5000000000000000        13.000000000000000        0.0000000000000000     
   3.5000000000000000        13.500000000000000        0.0000000000000000     
   3.5000000000000000        14.000000000000000        0.0000000000000000     
   3.5000000000000000        14.500000000000000        0.0000000000000000     
   3.5000000000000000        15.000000000000000        0.0000000000000000     
   3.5000000000000000        15.500000000000000        0.0000000000000000     
   3.5000000000000000        16.000000000000000        0.0000000000000000     
   3.5000000000000000        16.500000000000000        0.0000000000000000     
   3.5000000000000000        17.000000000000000        0.0000000000000000     
   3.5000000000000000        17.500000000000000        0.0000000000000000     
   3.5000000000000000        18.000000000000000        0.0000000000000000     
   3.5000000000000000        18.500000000000000        0.0000000000000000     
   3.5000000000000000        19.000000000000000        0.0000000000000000     
   3.5000000000000000        19.500000000000000        0.0000000000000000     
   3.5000000000000000        20.000000000000000        0.0000000000000000     
   3.5000000000000000        20.500000000000000        0.0000000000000000     
   3.5000000000000000        21.000000000000000        0.0000000000000000     
   3.5000000000000000        21.500000000000000        0.0000000000000000     
   3.5000000000000000        22.000000000000000        0.0000000000000000     
   3.5000000000000000        22.500000000000000        0.0000000000000000     
   3.5000000000000000        23.000000000000000        0.0000000000000000     
   3.5000000000000000        23.500000000000000        0.0000000000000000     
   3.5000000000000000        24.000000000000000        0.0000000000000000     
   3.5000000000000000        24.500000000000000        0.0000000000000000     
   3.5000000000000000        25.000000000000000        0.0000000000000000     
   3.5000000000000000        25.500000000000000        0.0000000000000000     
   3.5000000000000000        26.000000000000000        0.0000000000000000     
   3.5000000000000000        26.500000000000000        0.0000000000000000     
   3.5000000000000000        27.000000000000000        0.0000000000000000     
   3.5000000000000000        27.500000000000000        0.0000000000000000     
   3.5000000000000000        28.000000000000000        0.0000000000000000     
   3.5000000000000000        28.500000000000000        0.0000000000000000     
   3.5000000000000000        29.000000000000000        0.0000000000000000     
   3.5000000000000000        29.500000000000000        0.0000000000000000     
   3.5000000000000000        30.000000000000000        0.0000000000000000     
   3.5000000000000000        30.500000000000000        0.0000000000000000     
   3.5000000000000000        31.000000000000000        0.0000000000000000     
   3.5000000000000000        31.500000000000000        0.0000000000000000     
   3.5000000000000000        32.000000000000000        0.0000000000000000     
   3.5000000000000000        32.500000000000000        0.0000000000000000     
   3.5000000000000000        33.000000000000000        0.0000000000000000     
   3.5000000000000000        33.500000000000000        0.0000000000000000     
   3.5000000000000000        34.000000000000000        0.0000000000000000     
   3.5000000000000000        34.500000000000000        0.0000000000000000     
   3.5000000000000000        35.000000000000000        0.0000000000000000     
   3.5000000000000000        35.500000000000000        0.0000000000000000     
   3.5000000000000000        36.000000000000000        0.0000000000000000     
   3.5000000000000000        36.500000000000000        0.0000000000000000     
   3.5000000000000000        37.000000000000000        0.0000000000000000     
   3.5000000000000000        37.500000000000000        0.0000000000000000     
   3.5000000000000000        38.000000000000000        0.0000000000000000     
   3.5000000000000000        38.500000000000000        0.0000000000000000     
   3.5000000000000000        39.000000000000000        0.0000000000000000     
   3.5000000000000000        39.500000000000000        0.0000000000000000     
   3.0625000000000000        40.000000000000000        0.0000000000000000     
   2.6250000000000000        40.000000000000000        0.0000000000000000     
   2.1875000000000000        40.000000000000000        0.0000000000000000     
   1.7500000000000000        40.000000000000000        0.0000000000000000     
   1.3125000000000000        40.000000000000000        0.0000000000000000     
  0.87500000000000000        40.000000000000000        0.0000000000000000     
  0.43750000000000000        40.000000000000000        0.0000000000000000     
   0.0000000000000000        39.500000000000000        0.0000000000000000     
   0.0000000000000000        39.000000000000000        0.0000000000000000     
   0.0000000000000000        38.500000000000000        0.0000000000000000     
   0.0000000000000000        38.000000000000000        0.0000000000000000     
   0.0000000000000000        37.500000000000000        0.0000000000000000     
   0.0000000000000000        37.000000000000000        0.0000000000000000     
   0.0000000000000000        36.500000000000000        0.0000000000000000     
   0.0000000000000000        36.000000000000000        0.0000000000000000     
   0.0000000000000000        35.500000000000000        0.0000000000000000     
   0.0000000000000000        35.000000000000000        0.0000000000000000     
   0.0000000000000000        34.500000000000000        0.0000000000000000     
   0.0000000000000000        34.000000000000000        0.0000000000000000     
   0.0000000000000000        33.500000000000000        0.0000000000000000     
   0.0000000000000000        33.000000000000000        0.0000000000000000     
   0.0000000000000000        32.500000000000000        0.0000000000000000     
   0.0000000000000000        32.000000000000000        0.0000000000000000     
   0.0000000000000000        31.500000000000000        0.0000000000000000     
   0.0000000000000000        31.000000000000000        0.0000000000000000     
   0.0000000000000000        30.500000000000000        0.0000000000000000     
   0.0000000000000000        30.000000000000000        0.0000000000000000     
   0.0000000000000000        29.500000000000000        0.0000000000000000     
   0.0000000000000000        29.000000000000000        0.0000000000000000     
   0.0000000000000000        28.500000000000000        0.0000000000000000     
   0.0000000000000000        28.000000000000000        0.0000000000000000     
   0.0000000000000000        27.500000000000000        0.0000000000000000     
   0.0000000000000000        27.000000000000000        0.0000000000000000     
   0.0000000000000000        26.500000000000000        0.0000000000000000     
   0.0000000000000000        26.000000000000000        0.0000000000000000     
[...]
 CELL_DATA        1368
 SCALARS T double
 LOOKUP_TABLE default
   20.968222962357380     
   25.623234311816123     
   1677.0479445164588     
   45.472631125048864     
   20.000001458928359     
   21.878704411570578     
   1280.0682027802823     
   21.739317932901681     
   20.133528290947648     
   21.455124108854751     
   20.206475245741508     
   39.386867033048723     
   21.395423927472862     
   47.823824483835381     
   40.696834229478256     
   1213.0236177441504     
   1678.2154361957898     
   20.419982467130865     
   20.382444379764650     
   22.862256371064710     
   20.317974567615252     
   20.023064435442599     
   1737.6898525856473     
   20.037498055264304     
   20.829286933457258     
   25.532420745948926     
   20.294978308996907     
   22.187130540265269     
   21.106085031999662     
   20.154921002890408     
   22.807797346665716     
   20.000002559953845     
   24.928777856923890     
   26.000362590448592     
   25.858881062414802     
   20.000002176635643     
   20.654798611217650     
   20.080061178930698     
   20.239812227904505     
   20.072079208724006     
   20.053389576707527     
   21.357018406147844     
   20.058772533580242     
   46.653779116582839     
   20.495212851561735     
   443.42731850982227     
   435.58449993873450     
   21.184356700443907     
   21.516518741422935     
   698.73184133453890     
   703.59390822209525     
   20.173221817698860     
   20.648833807250405     
   20.000002045789540     
   1709.1835485652175     
   20.000001788014035     
   20.000004738489892     
   20.021665350134548     
   20.012341681627330     
   20.027530309221287     
   20.000006032969775     
   44.967992642851563     
   20.043594755329284     
   20.000011494396521     
   22.482195941805585     
   23.088427553513458     
   20.127529591627855     
   22.953853569189366     
   20.247049758680618     
   20.324004636908480     
   20.000003954327607     
   1677.5925388177839     
   20.000007287453922     
   20.292044181585492     
   20.094942810611325     
   20.129299301408519     
   20.000016575694577     
   20.000039319524916     
   20.000003252866751     
   419.49453160593481     
   20.030941734467444     
   20.011243600326026     
   258.38623939865374     
   20.006792196434354     
   161.96151266451767     
   20.559192275132229     
   20.718033210541332     
   415.55743346528504     
   20.018055178626643     
   862.50233520076779     
   20.043840028768297     
   20.059540939433653     
   67.388252577788364     
   20.000128686669989     
   806.32135707619796     
   20.002998758127045     
   46.363072435896079     
   20.000055740952689     
   20.003513776836940     
   20.000021058234871     
   256.63586949623465     
   20.000013874577871     
   220.16693573396992     
   223.60232609328210     
   20.053175696965400     
   20.015216612133180     
   20.000003163263763     
   20.122531796357777     
   20.000002668803681     
   20.000024909826756     
   29.091123550676546     
   528.75121113276623     
   28.204381925148645     
   20.001728915668298     
   20.000009322146816     
   20.000001462982663     
   139.86831157676818     
   24.183688456413336     
   141.80849477987596     
   20.000802831360115     
   20.000013980310552     
   20.001551112122016     
   20.011315208171485     
   160.89822091328361     
   22.064805246810778     
   317.05957528878315     
   20.107841227466039     
   20.140579454023513     
   20.008395526360118     
   20.703357935585032     
   20.000003981739571     
   20.002125503763946     
   539.44325252876490     
   20.977380299010544     
   20.000047057662467     
   20.000180484049075     
   20.443386097307869     
   91.004781992223116     
   1321.8340579672101     
   92.288717492416112     
   1009.7011018739759     
   485.68122430411023     
   198.18701662509983     
   20.002438508887991     
   20.006018168721216     
   20.000610759449838     
   508.59335998064142     
   20.004300341839382     
   20.000032117835822     
   20.000047490601549     
   20.000785336084558     
   321.19226763798122     
   20.005861582895459     
   61.100268226910167     
   61.727042303260554     
   20.000070196609080     
   20.000529432160494     
   124.81855654367305     
   20.008909831394931     
   20.000152306702269     
   20.000082728635476     
   20.000009099688793     
   41.057821375294338     
   66.960110336696275     
   20.020945700256863     
   22.372059893632041     
   20.000154141926195     
   20.000001353184732     
   249.64396019939559     
   200.68181467223974     
   20.001242759979274     
   20.000351773618672     
   20.000105346474626     
   46.137582628233282     
   54.137428589537215     
   20.000413032425399     
   1014.6449698824596     
   20.545600247614452     
   126.00096033470729     
   20.000225414053858     
   168.25235651594704     
   159.70860584635022     
   38.702507353245132     
   20.000262499333893     
   35.608714825651802     
   20.000766293992207     
   20.009265507350314     
   20.012849483463558     
   60.788389102855241     
   20.000003051913051     
   265.13823950309569     
   20.105802203795974     
   26.791255202338348     
   26.784272103328835     
   30.633593938054481     
   20.000001604493821     
   583.67374040919674     
   20.000847038182712     
   20.000002710718427     
   20.000329593611045     
   28.031915148861348     
   20.000478683359663     
   108.23670190803361     
   20.004806819723459     
   20.006686960245485     
   20.001636272590996     
   102.91714529079313     
   24.304560828266141     
   20.000381434234889     
   20.000003201709323     
   20.000553839842830     
   20.000005587377519     
   25.481363346175485     
   20.000001405568625     
   20.001896353298310     
   20.000242015558161     
   20.003266254446110     
   20.004865787130605     
   20.138927439424005     
   20.000688567233343     
   24.093616994457559     
   20.000003668876982     
   20.008132345836167     
   58.514205709982761     
   20.003425764938338     
   54.680478172892812     
   20.003789388913123     
   20.000166037375731     
   20.000002124359817     
   20.000196108104202     
   20.001050510480191     
   20.000004647779825     
   22.019554533805326     
   20.000031340959143     
   22.742117636976712     
   20.000134595517196     
   20.008947784073676     
   20.000002352957353     
   20.955572666616195     
   20.010307792734476     
   33.844931413459577     
   38.960744690506516     
   331.86989882908284     
   21.045674754683251     
   55.378247854309244     
   71.482087729967063     
   1435.6716210071775     
   68.280559281148939     
   20.433045290800834     
   20.000113299477515     
   20.000051975139332     
   20.023529214568494     
   20.001143048716241     
   21.320823177835695     
   1517.5442810290308     
   20.000041622592345     
   20.000091667079708     
   20.000284136620326     
   20.026894962256538     
   20.001325984381420     
   20.000004977730029     
   744.56911095996304     
   574.78473080852405     
   20.059257159650713     
   20.012986937649249     
   20.003086613334670     
   20.611530782264250     
   20.000005368827996     
   20.067269539145343     
   1461.0323377022582     
   30.918309535650732     
   20.220053056962954     
   20.000924126227165     
   20.001083035260855     
   20.000755685914179     
   20.000005310327204     
   20.143134515055433     
   20.000004825802129     
   1384.2569992738640     
   1189.3766611518643     
   20.000001078091834     
   1254.2739681528585     
   20.000005675603003     
   20.161372974217329     
   1368.7797413885814     
   20.011617832795856     
   32.014780444154106     
   870.02292437969163     
   1391.7060959059816     
   20.000016742460666     
   25.652373463972879     
   20.000002162918520     
   20.000077140724631     
   20.000847645643471     
   20.001220468420378     
   20.000034919306376     
   20.000002972405209     
   20.000018486321835     
   20.000002447567006     
   923.30080967655226     
   22.830331865941957     
   20.000061802380579     
   661.68263753539463     
   20.000002146153466     
   20.000027749058042     
   21.364726633350081     
   20.632180845966509     
   20.000001399914755     
   20.000001972534303     
   1178.9413899020117     
   20.000003727736583     
   1291.0232016255954     
   1072.7039971136080     
   20.001090959271050     
   20.000875744485274     
   1480.7340856676851     
   31.435230414881516     
   336.08279119360571     
   20.039303412562465     
   20.000002889486890     
   20.000001615885296     
   20.000006079060558     
   782.53807327597906     
   20.000425120340015     
   20.000004054288262     
   20.000103423411694     
   20.000369707961124     
   20.006425788126581     
   1320.5841232365881     
   764.81362583997930     
   20.000002455972943     
   20.000004985046520     
   51.579868332757506     
   1202.5956050905800     
   20.000408469969958     
   20.000008092558261     
   1214.4033202700671     
   1291.7160292860772     
   20.007361541272630     
   20.002320592965702     
   1009.6858978720796     
   20.000004242021703     
   20.000017091801567     
   20.000010336504179     
   20.000011329758426     
   914.73976732555366     
   20.002677943960844     
   20.000015547049060     
   20.000019524480670     
   31.191064573953106     
   28.206252273673460     
   20.000008574177720     
   20.000003265957872     
   20.009402419367930     
   20.000007573940938     
   1143.2038679817724     
   20.000012889769462     
   1040.8741284962844     
   20.000007367230459     
   862.54218112238459     
   20.000003189347325     
   977.39945367279256     
   780.92632241622596     
   1034.3076170258637     
   1209.4377491469779     
   1038.7343458263358     
   20.000007040352756     
   20.000003513044891     
   20.000005687474545     
   874.19251609739035     
   842.50769537876340     
   765.00477734187677     
   737.31881676940156     
   1121.2481861171975     
   665.78991939004743     
   20.000368351844678     
   20.000007518773657     
   20.000025166870316     
   20.000023471855268     
   1233.6175150255488     
   891.78927963869955     
   894.99339423283880     
   968.75532920392845     
   631.94360503892017     
   723.61499615860203     
   20.000026263446038     
   20.000021126078188     
   20.000064377248442     
   565.42527831462280     
   834.29545128269422     
   563.18252188315796     
   20.000029177510541     
   20.000092948750808     
   20.000121756609406     
   631.51314145159222     
   473.54954370119674     
   767.87327614779008     
   20.000056305645511     
   615.37619319895612     
   653.56815864250439     
   20.000025499995719     
   20.000082771333002     
   663.25543166496686     
   20.000177702245523     
   20.000082600012899     
   540.32144281792830     
   20.000136248965010     
   20.000087195273032     
   20.000070736289725     
   20.000203316339114     
   567.03171286889574     
   460.42632550997530     
   483.49341173017820     
   20.000028946556327     
   391.74453000537108     
   412.98863802341788     
   20.000403327043145     
   20.000485699699148     
   20.000038162460694     
   20.000470809116795     
   716.69929143952413     
   20.000993447886650     
   20.001169055444269     
   20.001425535833096     
   20.000550005695914     
   301.47861723561903     
   20.000842246745048     
   20.000698785325710     
   406.78699711721845     
   20.001441951845198     
   20.001005153262746     
   20.000042806868521     
   20.001767851816499     
   20.001535162885162     
   20.001201649921114     
   20.002867312454963     
   20.001207839787906     
   20.005664114576810     
   20.006592408095205     
   20.015417684895876     
   20.011094155323299     
   20.009461073735824     
   20.013110080288357     
   20.020925383120861     
   20.053022984934376     
   20.024828848775503     
   20.021131653457445     
   20.039637814073195     
   20.029012862593969     
   20.128870681019475     
   20.062451932442894     
   20.053534629423194     
   20.097701563877326     
   20.072477059247397     
   20.068653380386102     
   20.033920019756458     
   20.091753469400206     
   20.073663824041549     
   20.055471665936857     
   20.051049799956601     
   20.299669870194776     
   20.150685078316986     
   20.130083979273056     
   20.231079858892407     
   20.173692293887349     
   20.084141504256461     
   395.07584671721980     
   20.671072890393944     
   20.349160690477607     
   20.303046082422526     
   20.522791064785199     
   20.398085045904484     
   20.200264185143542     
   20.478325135078489     
   20.380988179809812     
   20.273955438932969     
   20.359224379950184     
   21.443780035844355     
   20.776051002089297     
   20.678339602536681     
   21.139336447592871     
   20.881025933435083     
   20.457708632473896     
   20.295238479269628     
   22.990025210619862     
   21.658096500432045     
   21.458993033911543     
   22.388032914952355     
   21.870630976348668     
   21.003665465294382     
   22.057702326675908     
   21.685572622486596     
   21.255169845422635     
   21.604301380073810     
   25.967402887333247     
   23.410646426726952     
   23.020450348765554     
   24.825712193095729     
   23.818902745353672     
   22.117089337377831     
   244.92615629193259     
   280.62406923828269     
   255.50487138825389     
   21.335564423286240     
   27.512503514714371     
   138.31522537419929     
   297.09481300232318     
   150.99426898053383     
   136.96799048464806     
   154.05633416421918     
   31.495870089504116     
   276.87469825450376     
   246.07657454739535     
   297.23314135391303     
   26.763447907359183     
   26.026303055238621     
   77.543231850498117     
   240.06193763514068     
   129.93890180973466     
   72.953988959142123     
   154.53725832241130     
   24.301576069250252     
   117.71623996054440     
   241.46854462301761     
   28.448003240640215     
   29.410847628240095     
   330.57851098590373     
   206.65051125589216     
   185.93554212601032     
   131.90724970174924     
   44.944315756687587     
   111.27843963809218     
   37.543145445666902     
   36.039404907910367     
   85.478517873144725     
   46.248350980503162     
   336.48251848369563     
   32.940790282666292     
   31.603126690732626     
   254.06239652498391     
   37.350777615232758     
   244.16778203566486     
   88.082978285484529     
   160.95939582582767     
   44.659216987191229     
   179.11087821507178     
   178.84153085562230     
   175.91087367549324     
   237.92758227272643     
   34.245482131160330     
   159.82112163232378     
   102.59353867145364     
   101.86282817319632     
   301.66441602656681     
   98.123130878117465     
   334.83453112736646     
   66.036901986907282     
   74.149477987137161     
   84.959269232180787     
   217.65528715759348     
   348.47111046788547     
   50.376053222505085     
   189.21445319820688     
   273.53523191884102     
   20.002387138779536     
   77.631038424735010     
   83.200623655678456     
   319.29912306017059     
   20.005881046191025     
   20.003037312022805     
   66.772131366561709     
   35.956255804157948     
   89.478313471324427     
   139.24738744588939     
   443.77138487811493     
   321.81643028895468     
   236.14746355492963     
   268.23820328023476     
   148.83295194879562     
   97.058084115556341     
   65.263806541934741     
   46.046991430985216     
   34.632882984219648     
   27.924030271332210     
   24.193766416401324     
   22.131079635865085     
   21.050375770943173     
   20.496528076553737     
   20.225872651943440     
   20.097372317445785     
   20.041518359456713     
   20.016557674751450     
   20.006444925775483     
   20.004651723952126     
   20.003332299147672     
   20.004234602725656     
   20.001693164181585     
   20.002165511817154     
   20.000594706935278     
   20.000198407811528     
   20.000063279086667     
   20.000019393980541     
   20.002905816874847     
   20.000017485904898     
   20.000058941764355     
   20.000189830126271     
   20.000586365125734     
   20.001727941835675     
   20.003463130447102     
   20.004855771499198     
   20.004096576873582     
   20.006795694850304     
   20.005749570229749     
   20.018141471699359     
   20.046267486453637     
   20.113169056033463     
   20.265704713187173     
   20.598720683801464     
   21.295765927829908     
   22.698557638145395     
   25.414925034720572     
   30.486350242653167     
   39.644471338717182     
   55.721664788582537     
   83.298048464787954     
   96.167704593446132     
   89.008986965177570     
   111.58213479174823     
   129.48197424607881     
   205.50497325089415     
   328.67156898295957     
   525.69143025069923     
   96.191943199451060     
   209.22677393071461     
   220.43477669331293     
   153.84382437036106     
   20.002052980014241     
   111.40798183081580     
   285.77429836022623     
   64.271274033463285     
   119.63236277069592     
   49.452484961575522     
   20.002444358067301     
   55.978748720243772     
   103.17005083080207     
   258.25711688526093     
   67.567386583523302     
   352.60500994604666     
   46.062534193799870     
   74.039077813093201     
   162.13379034519949     
   118.63150026012602     
   59.832426224613293     
   113.54133597148991     
   50.698538720524276     
   52.619471260188277     
   46.913364423867748     
   64.739381814188633     
   56.932863992488976     
   132.31443018479007     
   285.39717987478025     
   174.02278262585972     
   119.29372809746297     
   51.802814883571763     
   36.905648288806113     
   63.414019349238693     
   113.59673878517435     
   76.449823821615340     
   58.632798643897921     
   72.548865013704315     
   41.339914052810734     
   98.140829737089192     
   44.148051551402894     
   44.876890767448295     
   37.848864963564893     
   41.936111041223548     
   40.464621199011276     
   150.41371335037607     
   45.010336690854921     
   152.56504058545363     
   34.156014473040628     
   39.840884111180870     
   96.778927866177071     
   36.628219169920833     
   27.194115431392479     
   34.271916517513105     
   98.603430662018596     
   88.925717192312618     
   102.65819410285681     
   33.407971824698976     
   28.949478408834999     
   186.66502035338226     
   27.648029337051003     
   218.02899032119652     
   31.736478263955764     
   30.995269977117569     
   23.674327349557807     
   27.631143563305418     
   29.481466305327253     
   209.21869873273295     
   27.196524923070417     
   28.840781617810652     
   27.440232073906436     
   27.659973846362742     
   23.936004852186599     
   27.079884515413902     
   24.573907828409887     
   26.163120861824606     
   25.694107272452865     
   24.938819397668716     
   21.792174663721259     
   23.785591390943065     
   24.545635143819343     
   23.919084014136292     
   23.601775681586137     
   21.952365310639134     
   22.264559438435619     
   23.113926576027435     
   22.860883273872169     
   22.461817110240403     
   20.857238737665629     
   21.856392684868172     
   22.253499828143202     
   21.927913631256672     
   21.762692688164861     
   20.929120509884118     
   21.094934921064418     
   21.514865803127247     
   21.383205512431246     
   21.184620980602553     
   20.390125605753028     
   20.877563998797942     
   21.077549453639776     
   20.917613932427948     
   20.833529308354453     
   20.430930563965052     
   20.504384808712217     
   20.711153636591373     