# vtk DataFile Version 2.0
 temperature
 ASCII
 DATASET UNSTRUCTURED_GRID
 POINTS         773  double
   0.0000000000000000        0.0000000000000000        0.0000000000000000     
   3.5000000000000000        0.0000000000000000        0.0000000000000000     
   3.5000000000000000        40.000000000000000        0.0000000000000000     
   0.0000000000000000        40.000000000000000        0.0000000000000000     
  0.43750000000000000        0.0000000000000000        0.0000000000000000     
  0.87500000000000000        0.0000000000000000        0.0000000000000000     
   1.3125000000000000        0.0000000000000000        0.0000000000000000     
   1.7500000000000000        0.0000000000000000        0.0000000000000000     
   2.1875000000000000        0.0000000000000000        0.0000000000000000     
   2.6250000000000000        0.0000000000000000        0.0000000000000000     
   3.0625000000000000        0.0000000000000000        0.0000000000000000     
   3.5000000000000000       0.50000000000000000        0.0000000000000000     
   3.5000000000000000        1.0000000000000000        0.0000000000000000     
   3.5000000000000000        1.5000000000000000        0.0000000000000000     
   3.5000000000000000        2.0000000000000000        0.0000000000000000     
   3.5000000000000000        2.5000000000000000        0.0000000000000000     
   3.5000000000000000        3.0000000000000000        0.0000000000000000     
   3.5000000000000000        3.5000000000000000        0.0000000000000000     
   3.5000000000000000        4.0000000000000000        0.0000000000000000     
   3.5000000000000000        4.5000000000000000        0.0000000000000000     
   3.5000000000000000        5.0000000000000000        0.0000000000000000     
   3.5000000000000000        5.5000000000000000        0.0000000000000000     
   3.5000000000000000        6.0000000000000000        0.0000000000000000     
   3.5000000000000000        6.5000000000000000        0.0000000000000000     
   3.5000000000000000        7.0000000000000000        0.0000000000000000     
   3.5000000000000000        7.5000000000000000        0.0000000000000000     
   3.5000000000000000        8.0000000000000000        0.0000000000000000     
   3.5000000000000000        8.5000000000000000        0.0000000000000000     
   3.5000000000000000        9.0000000000000000        0.0000000000000000     
   3.5000000000000000        9.5000000000000000        0.0000000000000000     
   3.5000000000000000        10.000000000000000        0.0000000000000000     
   3.5000000000000000        10.500000000000000        0.0000000000000000     
   3.5000000000000000        11.000000000000000        0.0000000000000000     
   3.5000000000000000        11.500000000000000        0.0000000000000000     
   3.5000000000000000        12.000000000000000        0.0000000000000000     
   3.5000000000000000        12.500000000000000        0.0000000000000000     
   3.5000000000000000        13.000000000000000        0.0000000000000000     
   3.5000000000000000        13.500000000000000        0.0000000000000000     
   3.5000000000000000        14.000000000000000        0.0000000000000000     
   3.5000000000000000        14.500000000000000        0.0000000000000000     
   3.5000000000000000        15.000000000000000        0.0000000000000000     
   3.5000000000000000        15.500000000000000        0.0000000000000000     
   3.5000000000000000        16.000000000000000        0.0000000000000000     
   3.5000000000000000        16.500000000000000        0.0000000000000000     
   3.5000000000000000        17.000000000000000        0.0000000000000000     
   3.5000000000000000        17.500000000000000        0.0000000000000000     
   3.5000000000000000        18.000000000000000        0.0000000000000000     
   3.5000000000000000        18.500000000000000        0.0000000000000000     
   3.5000000000000000        19.000000000000000        0.0000000000000000     
   3.5000000000000000        19.500000000000000        0.0000000000000000     
   3.5000000000000000        20.000000000000000        0.0000000000000000     
   3.5000000000000000        20.500000000000000        0.0000000000000000     
   3.5000000000000000        21.000000000000000        0.0000000000000000     
   3.5000000000000000        21.500000000000000        0.0000000000000000     
   3.5000000000000000        22.000000000000000        0.0000000000000000     
   3.5000000000000000        22.500000000000000        0.0000000000000000     
   3.5000000000000000        23.000000000000000        0.0000000000000000     
   3.5000000000000000        23.500000000000000        0.0000000000000000     
   3.5000000000000000        24.000000000000000        0.0000000000000000     
   3.5000000000000000        24.500000000000000        0.0000000000000000     
   3.5000000000000000        25.000000000000000        0.0000000000000000     
   3.5000000000000000        25.500000000000000        0.0000000000000000     
   3.5000000000000000        26.000000000000000        0.0000000000000000     
   3.5000000000000000        26.500000000000000        0.0000000000000000     
   3.5000000000000000        27.000000000000000        0.0000000000000000     
   3.5000000000000000        27.500000000000000        0.0000000000000000     
   3.5000000000000000        28.000000000000000        0.0000000000000000     
   3.5000000000000000        28.500000000000000        0.0000000000000000     
   3.5000000000000000        29.000000000000000        0.0000000000000000     
   3.5000000000000000        29.500000000000000        0.0000000000000000     
   3.5000000000000000        30.000000000000000        0.0000000000000000     
   3.5000000000000000        30.500000000000000        0.0000000000000000     
   3.5000000000000000        31.000000000000000        0.0000000000000000     
   3.5000000000000000        31.500000000000000        0.0000000000000000     
   3.5000000000000000        32.000000000000000        0.0000000000000000     
   3.5000000000000000        32.500000000000000        0.0000000000000000     
   3.5000000000000000        33.000000000000000        0.0000000000000000     
   3.5000000000000000        33.500000000000000        0.0000000000000000     
   3.5000000000000000        34.000000000000000        0.0000000000000000     
   3.5000000000000000        34.500000000000000        0.0000000000000000     
   3.5000000000000000        35.000000000000000        0.0000000000000000     
   3.5000000000000000        35.500000000000000        0.0000000000000000     
   3.5000000000000000        36.000000000000000        0.0000000000000000     
   3.5000000000000000        36.500000000000000        0.0000000000000000     
   3.5000000000000000        37.000000000000000        0.0000000000000000     
   3.5000000000000000        37.500000000000000        0.0000000000000000     
   3.5000000000000000        38.000000000000000        0.0000000000000000     
   3.5000000000000000        38.500000000000000        0.0000000000000000     
   3.5000000000000000        39.000000000000000        0.0000000000000000     
   3.5000000000000000        39.500000000000000        0.0000000000000000     
   3.0625000000000000        40.000000000000000        0.0000000000000000     
   2.6250000000000000        40.000000000000000        0.0000000000000000     
   2.1875000000000000        40.000000000000000        0.0000000000000000     
   1.7500000000000000        40.000000000000000        0.0000000000000000     
   1.3125000000000000        40.000000000000000        0.0000000000000000     
  0.87500000000000000        40.000000000000000        0.0000000000000000     
  0.43750000000000000        40.000000000000000        0.0000000000000000     
   0.0000000000000000        39.500000000000000        0.0000000000000000     
   0.0000000000000000        39.000000000000000        0.0000000000000000     
   0.0000000000000000        38.500000000000000        0.0000000000000000     
   0.0000000000000000        38.000000000000000        0.0000000000000000     
   0.0000000000000000        37.500000000000000        0.0000000000000000     
   0.0000000000000000        37.000000000000000        0.0000000000000000     
   0.0000000000000000        36.500000000000000        0.0000000000000000     
   0.0000000000000000        36.000000000000000        0.0000000000000000     
   0.0000000000000000        35.500000000000000        0.0000000000000000     
   0.0000000000000000        35.000000000000000        0.0000000000000000     
   0.0000000000000000        34.500000000000000        0.0000000000000000     
   0.0000000000000000        34.000000000000000        0.0000000000000000     
   0.0000000000000000        33.500000000000000        0.0000000000000000     
   0.0000000000000000        33.000000000000000        0.0000000000000000     
   0.0000000000000000        32.500000000000000        0.0000000000000000     
   0.0000000000000000        32.000000000000000        0.0000000000000000     
   0.0000000000000000        31.500000000000000        0.0000000000000000     
   0.0000000000000000        31.000000000000000        0.0000000000000000     
   0.0000000000000000        30.500000000000000        0.0000000000000000     
   0.0000000000000000        30.000000000000000        0.0000000000000000     
   0.0000000000000000        29.500000000000000        0.0000000000000000     
   0.0000000000000000        29.000000000000000        0.0000000000000000     
   0.0000000000000000        28.500000000000000        0.0000000000000000     
   0.0000000000000000        28.000000000000000        0.0000000000000000     
   0.0000000000000000        27.500000000000000        0.0000000000000000     
   0.0000000000000000        27.000000000000000        0.0000000000000000     
   0.0000000000000000        26.500000000000000        0.0000000000000000     
   0.0000000000000000        26.000000000000000        0.0000000000000000     
[...]
 CELL_DATA        1368
 SCALARS T double
 LOOKUP_TABLE default
   20.000105541213053     
   20.009675794040454     
   1622.1008355695903     
   21.060242330086332     
   20.000000000000000     
   20.000579237229214     
   1232.0734396350160     
   20.000415779529952     
   20.000000272198367     
   20.000273962098230     
   20.000000952475318     
   20.382946464754653     
   20.000158446720540     
   21.139617729901939     
   20.466057068558079     
   1164.0324544338725     
   1621.9572094927635     
   20.000006247291818     
   20.000004175272473     
   20.001347541294805     
   20.000002649999605     
   20.000000001107061     
   1694.3350702609353     
   20.000000004527553     
   20.000075869255951     
   20.012175606414086     
   20.000001370290079     
   20.000829687833310     
   20.000120969686648     
   20.000000390131166     
   20.001718577500835     
   20.000000000000000     
   20.007002518063299     
   20.012345840057879     
   20.015061696253149     
   20.000000000000000     
   20.000015959178857     
   20.000000036231004     
   20.000001122390220     
   20.000000023166677     
   20.000000006477613     
   20.000196967926417     
   20.000000013855445     
   20.851778949471662     
   20.000009381010283     
   243.16631146196281     
   238.59825464166803     
   20.000104139653327     
   20.000220639683075     
   601.18339231466109     
   596.81716620762711     
   20.000000638488274     
   20.000021338947413     
   20.000000000000000     
   1672.5925177149586     
   20.000000000000000     
   20.000000000000000     
   20.000000000519684     
   20.000000000154671     
   20.000000001715872     
   20.000000000000000     
   20.817494713216554     
   20.000000005335089     
   20.000000000000000     
   20.000948956124468     
   20.001796811302043     
   20.000000100826966     
   20.002092110810207     
   20.000000859643052     
   20.000001996448898     
   20.000000000000000     
   1634.5011528997527     
   20.000000000000000     
   20.000001813899821     
   20.000000056166094     
   20.000000145233614     
   20.000000000000000     
   20.000000000000000     
   20.000000000000000     
   219.11678633264702     
   20.000000002874085     
   20.000000000098865     
   96.340722502642492     
   20.000000000014591     
   46.123646126524271     
   20.000010639138569     
   20.000022780752765     
   216.68218654088901     
   20.000000000323791     
   774.59753418371133     
   20.000000003814296     
   20.000000010048222     
   21.975007529537724     
   20.000000000000000     
   720.31325742482738     
   20.000000000000664     
   20.431849922540529     
   20.000000000000000     
   20.000000000001830     
   20.000000000000000     
   95.798802904327928     
   20.000000000000000     
   108.36015265391646     
   106.98823048457784     
   20.000000008822692     
   20.000000000261267     
   20.000000000000000     
   20.000000190051509     
   20.000000000000000     
   20.000000000000000     
   20.052765250180848     
   334.51914269608829     
   20.017646665651764     
   20.000000000000139     
   20.000000000000000     
   20.000000000000000     
   53.045278873862230     
   20.002499194726603     
   52.246433631421453     
   20.000000000000000     
   20.000000000000000     
   20.000000000000099     
   20.000000000047372     
   45.939616655895463     
   20.000306071421001     
   139.74582426763212     
   20.000000064585137     
   20.000000148062032     
   20.000000000025366     
   20.000029186558677     
   20.000000000000000     
   20.000000000000242     
   340.55662551781154     
   20.000031648411188     
   20.000000000000000     
   20.000000000000000     
   20.000002773238201     
   30.877610016694252     
   1266.3006914387590     
   30.498686145498702     
   943.60924036638153     
   365.27164170677923     
   63.865956751111959     
   20.000000000000362     
   20.000000000008839     
   20.000000000000000     
   384.89425677313659     
   20.000000000003073     
   20.000000000000000     
   20.000000000000000     
   20.000000000000000     
   141.25362545740688     
   20.000000000005837     
   23.090602807635214     
   22.970855181238591     
   20.000000000000000     
   20.000000000000000     
   33.877899962193240     
   20.000000000055916     
   20.000000000000000     
   20.000000000000000     
   20.000000000000000     
   20.772862659451629     
   21.956066559858531     
   20.000000000728676     
   20.001178076371971     
   20.000000000000000     
   20.000000000000000     
   132.32007995128896     
   64.387157052187462     
   20.000000000000000     
   20.000000000000000     
   20.000000000000000     
   20.428345145225997     
   20.901895258877083     
   20.000000000000000     
   941.82762609183146     
   20.000014183588927     
   33.962037724419901     
   20.000000000000000     
   68.085417923332429     
   64.538891316653348     
   20.182187858677803     
   20.000000000000000     
   20.206235068760613     
   20.000000000000000     
   20.000000000027601     
   20.000000000077925     
   22.082981602499263     
   20.000000000000000     
   141.66595426380022     
   20.000000088974801     
   20.027483369133144     
   20.026254741176505     
   20.041758779829223     
   20.000000000000000     
   465.09362059492912     
   20.000000000000000     
   20.000000000000000     
   20.000000000000000     
   20.017283598114574     
   20.000000000000000     
   36.461522031446854     
   20.000000000003382     
   20.000000000009749     
   20.000000000000075     
   35.141046326761540     
   20.005772913355095     
   20.000000000000000     
   20.000000000000000     
   20.000000000000000     
   20.000000000000000     
   20.006298218947862     
   20.000000000000000     
   20.000000000000171     
   20.000000000000000     
   20.000000000000558     
   20.000000000005130     
   20.000000195416895     
   20.000000000000000     
   20.002445169385236     
   20.000000000000000     
   20.000000000035559     
   21.812723400871430     
   20.000000000001151     
   20.914130557100030     
   20.000000000000867     
   20.000000000000000     
   20.000000000000000     
   20.000000000000000     
   20.000000000000000     
   20.000000000000000     
   20.000298277884152     
   20.000000000000000     
   20.000825744339071     
   20.000000000000000     
   20.000000000013131     
   20.000000000000000     
   20.000030798948924     
   20.000000000021419     
   20.151598608242033     
   20.183410716658003     
   183.46848761195432     
   20.000088748255823     
   21.888822414561364     
   24.883839373329547     
   1370.7422325984689     
   24.466980466544761     
   20.000002706548603     
   20.000000000000000     
   20.000000000000000     
   20.000000000285453     
   20.000000000000000     
   20.000092274497888     
   1442.3680632339249     
   20.000000000000000     
   20.000000000000000     
   20.000000000000000     
   20.000000000453820     
   20.000000000000000     
   20.000000000000000     
   593.72912528653069     
   466.24799872946960     
   20.000000005331703     
   20.000000000113193     
   20.000000000001133     
   20.000008789346897     
   20.000000000000000     
   20.000000008264696     
   1390.7451068056660     
   20.042586781950412     
   20.000000747392495     
   20.000000000000000     
   20.000000000000000     
   20.000000000000000     
   20.000000000000000     
   20.000000085749303     
   20.000000000000000     
   1273.8584434099828     
   1160.8300533526633     
   20.000000000000000     
   1156.2231949607312     
   20.000000000000000     
   20.000000129590983     
   1281.8422631651592     
   20.000000000071093     
   20.153300316411237     
   758.50223368795685     
   1300.4305347170284     
   20.000000000000000     
   20.006476709617722     
   20.000000000000000     
   20.000000000000000     
   20.000000000000000     
   20.000000000000000     
   20.000000000000000     
   20.000000000000000     
   20.000000000000000     
   20.000000000000000     
   801.72112605755740     
   20.000848626805070     
   20.000000000000000     
   510.81962223518161     
   20.000000000000000     
   20.000000000000000     
   20.000094914740654     
   20.000009043536959     
   20.000000000000000     
   20.000000000000000     
   1064.9613905300248     
   20.000000000000000     
   1214.3860912789760     
   949.79529964444373     
   20.000000000000000     
   20.000000000000000     
   1386.6264756514083     
   20.132728714722482     
   190.71769764649579     
   20.000000003375039     
   20.000000000000000     
   20.000000000000000     
   20.000000000000000     
   644.75845719634242     
   20.000000000000000     
   20.000000000000000     
   20.000000000000000     
   20.000000000000000     
   20.000000000004547     
   1214.5572539039460     
   702.07303011528927     
   20.000000000000000     
   20.000000000000000     
   21.404021966714033     
   1061.5220025366234     
   20.000000000000000     
   20.000000000000000     
   1122.2776004125444     
   1164.7126353688896     
   20.000000000007294     
   20.000000000000284     
   872.11559139459439     
   20.000000000000000     
   20.000000000000000     
   20.000000000000000     
   20.000000000000000     
   770.98827634912311     
   20.000000000000384     
   20.000000000000000     
   20.000000000000000     
   20.069147138192847     
   20.044795669936519     
   20.000000000000000     
   20.000000000000000     
   20.000000000041108     
   20.000000000000000     
   1009.7871891921709     
   20.000000000000000     
   897.60164639495804     
   20.000000000000000     
   706.01373011294550     
   20.000000000000000     
   819.81912143648208     
   621.04063223837045     
   918.83947085382954     
   1090.7564502451994     
   872.08211969599108     
   20.000000000000000     
   20.000000000000000     
   20.000000000000000     
   739.21574121045057     
   667.73157153617149     
   586.92432111554808     
   566.96366536162054     
   966.32856925421368     
   495.09027469791664     
   20.000000000000000     
   20.000000000000000     
   20.000000000000000     
   20.000000000000000     
   1162.7213120915608     
   705.20371192072719     
   731.17120539223947     
   791.30345684793372     
   471.24435578421895     
   537.41955024969343     
   20.000000000000000     
   20.000000000000000     
   20.000000000000000     
   356.01737173691652     
   640.26639121000630     
   355.81238820674963     
   20.000000000000000     
   20.000000000000000     
   20.000000000000000     
   452.86284939125864     
   312.54270280274466     
   568.08140332928463     
   20.000000000000000     
   405.77379236228046     
   467.07195031713212     
   20.000000000000000     
   20.000000000000000     
   456.13041472293423     
   20.000000000000000     
   20.000000000000000     
   357.79506557751108     
   20.000000000000000     
   20.000000000000000     
   20.000000000000000     
   20.000000000000000     
   390.68053188459112     
   277.93364139559645     
   306.14821086258337     
   20.000000000000000     
   214.09347578830119     
   237.91801867452867     
   20.000000000000000     
   20.000000000000000     
   20.000000000000000     
   20.000000000000000     
   512.04815419079796     
   20.000000000000000     
   20.000000000000000     
   20.000000000000000     
   20.000000000000000     
   176.81630439324510     
   20.000000000000000     
   20.000000000000000     
   222.07518798228628     
   20.000000000000000     
   20.000000000000000     
   20.000000000000000     
   20.000000000000217     
   20.000000000000217     
   20.000000000000114     
   20.000000000000288     
   20.000000000000000     
   20.000000000002849     
   20.000000000004675     
   20.000000000066844     
   20.000000000023451     
   20.000000000014044     
   20.000000000039599     
   20.000000000181696     
   20.000000003476526     
   20.000000000302471     
   20.000000000182730     
   20.000000001346631     
   20.000000000500243     
   20.000000057292308     
   20.000000005642136     
   20.000000003495266     
   20.000000023351447     
   20.000000009102688     
   20.000000030702772     
   20.000000000815977     
   20.000000077369364     
   20.000000046039116     
   20.000000018476150     
   20.000000012035883     
   20.000000804345252     
   20.000000090614765     
   20.000000057579015     
   20.000000348305580     
   20.000000142572610     
   20.000000014484865     
   204.94471049783991     
   20.000009779571116     
   20.000001251549293     
   20.000000812926121     
   20.000004410791693     
   20.000001895822059     
   20.000000221274544     
   20.000012529372224     
   20.000007491477547     
   20.000002292631741     
   20.000005280504993     
   20.000101781875355     
   20.000014805285026     
   20.000009874038447     
   20.000048350930925     
   20.000022004354449     
   20.000002903403193     
   20.000003381036894     
   20.000907635807295     
   20.000150075839265     
   20.000102721055313     
   20.000453269497875     
   20.000217446653309     
   20.000032603362492     
   20.001020681643627     
   20.000662582026614     
   20.000236350239788     
   20.000491756321789     
   20.006925903786520     
   20.001302472378409     
   20.000915206256348     
   20.003645387649758     
   20.001831921391663     
   20.000313745696548     
   104.09353172929436     
   117.06996859194868     
   115.03254645284197     
   20.000330535749384     
   20.013176585201485     
   43.999767368282356     
   131.15394865881728     
   43.971519045864170     
   39.172850546102303     
   49.929533973463471     
   20.045211785225383     
   139.27266008687303     
   91.992173130460685     
   147.66687736218142     
   20.009681269326041     
   20.006980659304496     
   24.718127800047824     
   90.108445027423969     
   36.289352295843450     
   24.375268892429819     
   44.578458710732093     
   20.002586186437838     
   32.855577716938008     
   115.12431040605773     
   20.018343094008078     
   20.025104341932149     
   154.51040444099900     
   70.405086420766921     
   60.552900050852926     
   38.373323207168418     
   20.555590038537392     
   35.108478697844255     
   20.143474194951459     
   20.129535382230664     
   26.068791139247107     
   20.677921307650507     
   176.34837334987949     
   20.061326665802767     
   20.045469111605762     
   100.62725068417846     
   20.167270290216621     
   97.351352823819042     
   25.531425272598678     
   54.708023469740361     
   20.643688628922792     
   58.945658272303660     
   62.680808016341615     
   54.696360935901581     
   107.54504719506500     
   20.080728221247153     
   48.233741815435941     
   27.658961876148915     
   28.536173394765552     
   141.48728720076377     
   31.443188040027504     
   165.26410936684101     
   23.331005114437627     
   23.874398811090202     
   25.288002732260903     
   77.748674969883709     
   171.26328331748215     
   20.796746261711277     
   65.467111343092355     
   171.00970509619106     
   20.000000000000952     
   24.124421531305643     
   24.497377676959204     
   207.03242306215600     
   20.000000000012719     
   20.000000000001641     
   22.222833134407239     
   20.109879165998979     
   26.431351709240960     
   41.809009388394635     
   348.61398236147789     
   218.61035886608121     
   134.90165487052977     
   158.04491734866525     
   65.324218129245182     
   35.905899407760536     
   24.850866683946744     
   21.278689074254050     
   20.288397324075738     
   20.055652077171963     
   20.009285742333784     
   20.001323286788939     
   20.000160726707481     
   20.000016658048335     
   20.000001484619567     
   20.000000111172550     
   20.000000007429072     
   20.000000000415529     
   20.000000000020140     
   20.000000000007152     
   20.000000000002540     
   20.000000000004544     
   20.000000000000327     
   20.000000000000625     
   20.000000000000000     
   20.000000000000000     
   20.000000000000000     
   20.000000000000000     
   20.000000000000362     
   20.000000000000000     
   20.000000000000000     
   20.000000000000000     
   20.000000000000000     
   20.000000000000036     
   20.000000000000682     
   20.000000000001755     
   20.000000000001020     
   20.000000000004952     
   20.000000000002967     
   20.000000000111619     
   20.000000002186272     
   20.000000036887716     
   20.000000535587340     
   20.000006672117756     
   20.000071158893807     
   20.000649914067147     
   20.005080610392938     
   20.033959496030960     
   20.194485570319880     
   20.954081603137663     
   24.027520923966243     
   26.294710246962719     
   24.991198532594574     
   29.711276703061358     
   34.632175752647107     
   65.884852766300156     
   144.78168253837453     
   316.44574898525588     
   27.017543603645692     
   75.429857227933056     
   83.871278363094291     
   47.075227922539639     
   20.000000000000142     
   30.709266641033214     
   126.73767944180354     
   22.097994471374054     
   34.686570369441071     
   20.658617745807454     
   20.000000000000249     
   21.107306955686600     
   29.772830496961060     
   109.01879363541632     
   22.599257165458170     
   183.44077039276010     
   20.495759059222696     
   23.393137372059705     
   51.693923565128955     
   36.202056731077910     
   21.670030554087742     
   32.322959217168673     
   20.945452082835558     
   21.001267946861056     
   20.607041313465647     
   21.843879505968552     
   21.312994928332987     
   40.531918128081486     
   134.79505790786513     
   65.369919971807462     
   31.757951189219508     
   20.834474380344655     
   20.195650219616791     
   21.786358771593957     
   33.831108267661932     
   23.521432262367945     
   21.372464942724264     
   22.871065264681221     
   20.291487174229928     
   28.163317041401466     
   20.390771779215630     
   20.402817801094841     
   20.204808775943164     
   20.355365735586030     
   20.280968344809306     
   51.956332597501422     
   20.477435208989302     
   55.349253147822580     
   20.095383059778801     
   20.230944201096115     
   30.101124809808123     
   20.161187610595803     
   20.018957878356794     
   20.112526229811298     
   29.263111295567771     
   27.215538085717807     
   30.950101431140563     
   20.090714343432339     
   20.034462492034844     
   68.816316815007468     
   20.023933090117893     
   88.391077702163088     
   20.065490969448071     
   20.051711513480903     
   20.002739389139037     
   20.029522063860437     
   20.036147389027263     
   80.431280557419171     
   20.023212704246578     
   20.028105645348592     
   20.015868940648240     
   20.019853691429031     
   20.003585296768676     
   20.015098035676509     
   20.005167097992686     
   20.010661656034973     
   20.008047421077940     
   20.005641254439336     
   20.000335653043642     
   20.002238887553705     
   20.004168821321770     
   20.002878023013889     
   20.002132177994334     
   20.000463191818977     
   20.000670839134639     
   20.001467733851698     
   20.001079424394028     
   20.000735306434500     
   20.000035778504468     
   20.000270321037057     
   20.000529994895963     
   20.000355053275424     
   20.000256813365834     
   20.000049304554260     
   20.000074984902881     
   20.000172394719829     
   20.000123354603048     
   20.000082145176503     
   20.000003232863818     
   20.000027949883211     
   20.000057607268136     
   20.000037779830571     
   20.000026586004168     
   20.000004748452866     
   20.000007145031176     
   20.000017372566617     