# vtk DataFile Version 2.0
 temperature
 ASCII
 DATASET UNSTRUCTURED_GRID
 POINTS         773  double
   0.0000000000000000        0.0000000000000000        0.0000000000000000     
   3.5000000000000000        0.0000000000000000        0.0000000000000000     
   3.5000000000000000        40.000000000000000        0.0000000000000000     
   0.0000000000000000        40.000000000000000        0.0000000000000000     
  0.43750000000000000        0.0000000000000000        0.0000000000000000     
  0.87500000000000000        0.0000000000000000        0.0000000000000000     
   1.3125000000000000        0.0000000000000000        0.0000000000000000     
   1.7500000000000000        0.0000000000000000        0.0000000000000000     
   2.1875000000000000        0.0000000000000000        0.0000000000000000     
   2.6250000000000000        0.0000000000000000        0.0000000000000000     
   3.0625000000000000        0.0000000000000000        0.0000000000000000     
   3.5000000000000000       0.50000000000000000        0.0000000000000000     
   3.5000000000000000        1.0000000000000000        0.0000000000000000     
   3.5000000000000000        1.5000000000000000        0.0000000000000000     
   3.5000000000000000        2.0000000000000000        0.0000000000000000     
   3.5000000000000000        2.5000000000000000        0.0000000000000000     
   3.5000000000000000        3.0000000000000000        0.0000000000000000     
   3.5000000000000000        3.5000000000000000        0.0000000000000000     
   3.5000000000000000        4.0000000000000000        0.0000000000000000     
   3.5000000000000000        4.5000000000000000        0.0000000000000000     
   3.5000000000000000        5.0000000000000000        0.0000000000000000     
   3.5000000000000000        5.5000000000000000        0.0000000000000000     
   3.5000000000000000        6.0000000000000000        0.0000000000000000     
   3.5000000000000000        6.5000000000000000        0.0000000000000000     
   3.5000000000000000        7.0000000000000000        0.0000000000000000     
   3.5000000000000000        7.5000000000000000        0.0000000000000000     
   3.5000000000000000        8.0000000000000000        0.0000000000000000     
   3.5000000000000000        8.5000000000000000        0.0000000000000000     
   3.5000000000000000        9.0000000000000000        0.0000000000000000     
   3.5000000000000000        9.5000000000000000        0.0000000000000000     
   3.5000000000000000        10.000000000000000        0.0000000000000000     
   3.5000000000000000        10.500000000000000        0.0000000000000000     
   3.5000000000000000        11.000000000000000        0.0000000000000000     
   3.5000000000000000        11.500000000000000        0.0000000000000000     
   3.5000000000000000        12.000000000000000        0.0000000000000000     
   3.5000000000000000        12.500000000000000        0.0000000000000000     
   3.5000000000000000        13.000000000000000        0.0000000000000000     
   3.5000000000000000        13.500000000000000        0.0000000000000000     
   3.5000000000000000        14.000000000000000        0.0000000000000000     
   3.5000000000000000        14.500000000000000        0.0000000000000000     
   3.5000000000000000        15.000000000000000        0.0000000000000000     
   3.5000000000000000        15.500000000000000        0.0000000000000000     
   3.5000000000000000        16.000000000000000        0.0000000000000000     
   3.5000000000000000        16.500000000000000        0.0000000000000000     
   3.5000000000000000        17.000000000000000        0.0000000000000000     
   3.5000000000000000        17.500000000000000        0.0000000000000000     
   3.5000000000000000        18.000000000000000        0.0000000000000000     
   3.5000000000000000        18.500000000000000        0.0000000000000000     
   3.5000000000000000        19.000000000000000        0.0000000000000000     
   3.5000000000000000        19.500000000000000        0.0000000000000000     
   3.5000000000000000        20.000000000000000        0.0000000000000000     
   3.5000000000000000        20.500000000000000        0.0000000000000000     
   3.5000000000000000        21.000000000000000        0.0000000000000000     
   3.5000000000000000        21.500000000000000        0.0000000000000000     
   3.5000000000000000        22.000000000000000        0.0000000000000000     
   3.5000000000000000        22.500000000000000        0.0000000000000000     
   3.5000000000000000        23.000000000000000        0.0000000000000000     
   3.5000000000000000        23.500000000000000        0.0000000000000000     
   3.5000000000000000        24.000000000000000        0.0000000000000000     
   3.5000000000000000        24.500000000000000        0.0000000000000000     
   3.5000000000000000        25.000000000000000        0.0000000000000000     
   3.5000000000000000        25.500000000000000        0.0000000000000000     
   3.5000000000000000        26.000000000000000        0.0000000000000000     
   3.5000000000000000        26.500000000000000        0.0000000000000000     
   3.5000000000000000        27.000000000000000        0.0000000000000000     
   3.5000000000000000        27.500000000000000        0.0000000000000000     
   3.5000000000000000        28.000000000000000        0.0000000000000000     
   3.5000000000000000        28.500000000000000        0.0000000000000000     
   3.5000000000000000        29.000000000000000        0.0000000000000000     
   3.5000000000000000        29.500000000000000        0.0000000000000000     
   3.5000000000000000        30.000000000000000        0.0000000000000000     
   3.5000000000000000        30.500000000000000        0.0000000000000000     
   3.5000000000000000        31.000000000000000        0.0000000000000000     
   3.5000000000000000        31.500000000000000        0.0000000000000000     
   3.5000000000000000        32.000000000000000        0.0000000000000000     
   3.5000000000000000        32.500000000000000        0.0000000000000000     
   3.5000000000000000        33.000000000000000        0.0000000000000000     
   3.5000000000000000        33.500000000000000        0.0000000000000000     
   3.5000000000000000        34.000000000000000        0.0000000000000000     
   3.5000000000000000        34.500000000000000        0.0000000000000000     
   3.5000000000000000        35.000000000000000        0.0000000000000000     
   3.5000000000000000        35.500000000000000        0.0000000000000000     
   3.5000000000000000        36.000000000000000        0.0000000000000000     
   3.5000000000000000        36.500000000000000        0.0000000000000000     
   3.5000000000000000        37.000000000000000        0.0000000000000000     
   3.5000000000000000        37.500000000000000        0.0000000000000000     
   3.5000000000000000        38.000000000000000        0.0000000000000000     
   3.5000000000000000        38.500000000000000        0.0000000000000000     
   3.5000000000000000        39.000000000000000        0.0000000000000000     
   3.5000000000000000        39.500000000000000        0.0000000000000000     
   3.0625000000000000        40.000000000000000        0.0000000000000000     
   2.6250000000000000        40.000000000000000        0.0000000000000000     
   2.1875000000000000        40.000000000000000        0.0000000000000000     
   1.7500000000000000        40.000000000000000        0.0000000000000000     
   1.3125000000000000        40.000000000000000        0.0000000000000000     
  0.87500000000000000        40.000000000000000        0.0000000000000000     
  0.43750000000000000        40.000000000000000        0.0000000000000000     
   0.0000000000000000        39.500000000000000        0.0000000000000000     
   0.0000000000000000        39.000000000000000        0.0000000000000000     
   0.0000000000000000        38.500000000000000        0.0000000000000000     
   0.0000000000000000        38.000000000000000        0.0000000000000000     
   0.0000000000000000        37.500000000000000        0.0000000000000000     
   0.0000000000000000        37.000000000000000        0.0000000000000000     
   0.0000000000000000        36.500000000000000        0.0000000000000000     
   0.0000000000000000        36.000000000000000        0.0000000000000000     
   0.0000000000000000        35.500000000000000        0.0000000000000000     
   0.0000000000000000        35.000000000000000        0.0000000000000000     
   0.0000000000000000        34.500000000000000        0.0000000000000000     
   0.0000000000000000        34.000000000000000        0.0000000000000000     
   0.0000000000000000        33.500000000000000        0.0000000000000000     
   0.0000000000000000        33.000000000000000        0.0000000000000000     
   0.0000000000000000        32.500000000000000        0.0000000000000000     
   0.0000000000000000        32.000000000000000        0.0000000000000000     
   0.0000000000000000        31.500000000000000        0.0000000000000000     
   0.0000000000000000        31.000000000000000        0.0000000000000000     
   0.0000000000000000        30.500000000000000        0.0000000000000000     
   0.0000000000000000        30.000000000000000        0.0000000000000000     
   0.0000000000000000        29.500000000000000        0.0000000000000000     
   0.0000000000000000        29.000000000000000        0.0000000000000000     
   0.0000000000000000        28.500000000000000        0.0000000000000000     
   0.0000000000000000        28.000000000000000        0.0000000000000000     
   0.0000000000000000        27.500000000000000        0.0000000000000000     
   0.0000000000000000        27.000000000000000        0.0000000000000000     
   0.0000000000000000        26.500000000000000        0.0000000000000000     
   0.0000000000000000        26.000000000000000        0.0000000000000000     
[...]
 CELL_DATA        1368
 SCALARS T double
 LOOKUP_TABLE default
   20.001671755512355     
   20.068924585803853     
   1641.2185693912954     
   22.929219591901276     
   20.000000000000000     
   20.006798253916411     
   1248.7198975540157     
   20.005252861926589     
   20.000013435123641     
   20.003706350138071     
   20.000037258090902     
   21.325024712259566     
   20.002482315448507     
   23.164201866019571     
   21.549990870312314     
   1181.0034431389915     
   1641.5284522910283     
   20.000175196482658     
   20.000127883536436     
   20.014000696841205     
   20.000087636627093     
   20.000000157077245     
   1709.4427929361293     
   20.000000495532703     
   20.001265322525608     
   20.080611556582774     
   20.000053544681180     
   20.009169080235715     
   20.001914062318530     
   20.000018107825667     
   20.016531805554443     
   20.000000000000000     
   20.052760623000459     
   20.083379556655196     
   20.095165305113515     
   20.000000000000000     
   20.000388778282243     
   20.000002735936913     
   20.000043724834924     
   20.000001926218172     
   20.000000708547827     
   20.002872834990885     
   20.000001256388352     
   22.547634200867989     
   20.000245478632117     
   297.98414650344569     
   292.46028829604774     
   20.001755673289239     
   20.003217394074575     
   633.61675447253162     
   632.14166037851294     
   20.000026625178418     
   20.000476699619711     
   20.000000000000000     
   1685.3493997757189     
   20.000000000000000     
   20.000000000000000     
   20.000000089530108     
   20.000000031931997     
   20.000000225931881     
   20.000000000000000     
   22.427195532707028     
   20.000000581814877     
   20.000000000000000     
   20.010469138198602     
   20.017543034623277     
   20.000006507382032     
   20.019262716690783     
   20.000036446626755     
   20.000071960071473     
   20.000000000000000     
   1649.5094074684098     
   20.000000000000000     
   20.000065235336887     
   20.000003930168830     
   20.000008484787731     
   20.000000000000000     
   20.000000000000000     
   20.000000000000000     
   272.68581018641220     
   20.000000338772505     
   20.000000022543627     
   131.91356238400465     
   20.000000004921805     
   65.678790653294541     
   20.000278117023385     
   20.000514300145426     
   269.79059470475960     
   20.000000060526077     
   804.33503594223237     
   20.000000457722710     
   20.000001001623257     
   25.460097021611073     
   20.000000000000000     
   749.34323772308210     
   20.000000000435577     
   21.581820964905710     
   20.000000000000000     
   20.000000000899067     
   20.000000000000000     
   131.10762944442163     
   20.000000000000000     
   136.58077086602111     
   136.02382230084316     
   20.000000883441515     
   20.000000049380834     
   20.000000000000000     
   20.000010126622371     
   20.000000000000000     
   20.000000000000000     
   20.262692915688838     
   391.36291056894942     
   20.117881955518900     
   20.000000000111395     
   20.000000000000000     
   20.000000000000000     
   70.766859979672603     
   20.024267480844607     
   70.198386798028622     
   20.000000000009035     
   20.000000000000000     
   20.000000000099725     
   20.000000013279699     
   65.349233424830615     
   20.004450638936486     
   182.91032591579022     
   20.000004506364547     
   20.000008802456733     
   20.000000007785069     
   20.000609166433705     
   20.000000000000000     
   20.000000000178201     
   398.73790481721323     
   20.000712620713905     
   20.000000000000000     
   20.000000000000203     
   20.000099827152589     
   40.119420373072145     
   1285.5378485942197     
   39.753766232487692     
   966.29315377306432     
   403.10201302064922     
   89.946820143475776     
   20.000000000273506     
   20.000000003311719     
   20.000000000009628     
   423.87307777301612     
   20.000000001398437     
   20.000000000000000     
   20.000000000000000     
   20.000000000008932     
   185.03765998503582     
   20.000000002448811     
   27.124968067784778     
   26.967770560100458     
   20.000000000000000     
   20.000000000008384     
   46.897522656944354     
   20.000000013994576     
   20.000000000000103     
   20.000000000000000     
   20.000000000000000     
   22.217620935980939     
   25.408381201027545     
   20.000000113065589     
   20.012041771691841     
   20.000000000000039     
   20.000000000000000     
   163.28610697539398     
   90.827476747950016     
   20.000000000061444     
   20.000000000001663     
   20.000000000000000     
   21.568718150113597     
   22.861468941966326     
   20.000000000005016     
   966.76401423746574     
   20.000339170346479     
   47.105110823760477     
   20.000000000000327     
   90.126482592325274     
   85.317794129513999     
   20.779102041142107     
   20.000000000000519     
   20.804367670775328     
   20.000000000015831     
   20.000000008505072     
   20.000000019692823     
   25.407502653989294     
   20.000000000000000     
   174.45952814658989     
   20.000005638125465     
   20.152104215401845     
   20.147276895978415     
   20.233579447827967     
   20.000000000000000     
   503.29564787981781     
   20.000000000032060     
   20.000000000000000     
   20.000000000000885     
   20.115416238181105     
   20.000000000002217     
   48.627336159930501     
   20.000000001565613     
   20.000000003671410     
   20.000000000060499     
   46.511086650579969     
   20.044243276879207     
   20.000000000001307     
   20.000000000000000     
   20.000000000003386     
   20.000000000000000     
   20.050511378158475     
   20.000000000000000     
   20.000000000091195     
   20.000000000000782     
   20.000000000363542     
   20.000000002098986     
   20.000010693704294     
   20.000000000005890     
   20.023739629490859     
   20.000000000000000     
   20.000000009845195     
   24.824316845447978     
   20.000000000655277     
   22.902286563342891     
   20.000000000549807     
   20.000000000000348     
   20.000000000000000     
   20.000000000000497     
   20.000000000028553     
   20.000000000000000     
   20.004341055239298     
   20.000000000000000     
   20.009774023852877     
   20.000000000000252     
   20.000000004935782     
   20.000000000000000     
   20.000694267450093     
   20.000000007312838     
   20.625335339053724     
   20.785987164022945     
   223.85534906918414     
   20.001512232913250     
   24.836361313823303     
   30.485361430118513     
   1393.2322869611435     
   29.666075945346996     
   20.000097414715718     
   20.000000000000135     
   20.000000000000000     
   20.000000059600247     
   20.000000000023711     
   20.001664362735276     
   1468.3966565345140     
   20.000000000000000     
   20.000000000000046     
   20.000000000001123     
   20.000000086365961     
   20.000000000036060     
   20.000000000000000     
   642.49075277465590     
   501.46907316059151     
   20.000000635593803     
   20.000000025848308     
   20.000000000593790     
   20.000249290180687     
   20.000000000000000     
   20.000000902367958     
   1415.0768691195995     
   20.238706775925746     
   20.000031903392188     
   20.000000000014118     
   20.000000000053547     
   20.000000000020975     
   20.000000000000000     
   20.000005997093247     
   20.000000000000000     
   1311.7325045033590     
   1170.7642979075447     
   20.000000000000000     
   1189.8056820696070     
   20.000000000000000     
   20.000008340649408     
   1311.7871910130093     
   20.000000017920467     
   20.603868305792648     
   795.83864896672901     
   1331.8606229638751     
   20.000000000000000     
   20.051994123305040     
   20.000000000000000     
   20.000000000000000     
   20.000000000017536     
   20.000000000045148     
   20.000000000000000     
   20.000000000000000     
   20.000000000000000     
   20.000000000000000     
   842.39136762845783     
   20.010060109591770     
   20.000000000000000     
   558.89075895863368     
   20.000000000000000     
   20.000000000000000     
   20.001714785909265     
   20.000256932495805     
   20.000000000000000     
   20.000000000000000     
   1103.7314478132562     
   20.000000000000000     
   1240.7927632969179     
   991.27339053399874     
   20.000000000039840     
   20.000000000024627     
   1419.0947114898111     
   20.537881955697618     
   230.76785829693384     
   20.000000406601295     
   20.000000000000000     
   20.000000000000000     
   20.000000000000000     
   689.88413379154713     
   20.000000000003826     
   20.000000000000000     
   20.000000000000000     
   20.000000000002480     
   20.000000002099171     
   1250.8862014396141     
   723.45656225535265     
   20.000000000000000     
   20.000000000000000     
   23.801388987162561     
   1109.2071406366667     
   20.000000000002640     
   20.000000000000000     
   1153.8381838007092     
   1207.9800244434166     
   20.000000003068195     
   20.000000000149811     
   918.11906403538865     
   20.000000000000000     
   20.000000000000000     
   20.000000000000000     
   20.000000000000000     
   818.57223111201040     
   20.000000000223519     
   20.000000000000000     
   20.000000000000000     
   20.338034945410577     
   20.227135564690396     
   20.000000000000000     
   20.000000000000000     
   20.000000011376788     
   20.000000000000000     
   1054.8379105053220     
   20.000000000000000     
   945.51417653086924     
   20.000000000000000     
   757.23852247983359     
   20.000000000000000     
   871.96653395512033     
   672.71526051084732     
   957.82546642901661     
   1131.1265179252662     
   927.33390234857313     
   20.000000000000000     
   20.000000000000000     
   20.000000000000000     
   783.91539662793969     
   724.23856439870008     
   643.69057772664610     
   621.27170980313747     
   1018.2212765822909     
   548.70308327272858     
   20.000000000003361     
   20.000000000000000     
   20.000000000000000     
   20.000000000000000     
   1187.1535477485072     
   765.56722095654573     
   784.78662377130593     
   849.49007358966048     
   521.72592320157412     
   595.96572495230544     
   20.000000000000000     
   20.000000000000000     
   20.000000000000000     
   417.29817344646472     
   702.25754112320158     
   416.57458487265296     
   20.000000000000000     
   20.000000000000234     
   20.000000000000341     
   508.11395579509838     
   360.39347482301946     
   630.91318449665187     
   20.000000000000000     
   468.42257470955224     
   524.71121170692800     
   20.000000000000000     
   20.000000000000000     
   519.21400759010476     
   20.000000000000600     
   20.000000000000124     
   412.26742445681492     
   20.000000000000448     
   20.000000000000000     
   20.000000000000000     
   20.000000000000707     
   444.23106890989806     
   330.09550539139059     
   357.95259524810120     
   20.000000000000000     
   262.44403745329475     
   286.78869819156091     
   20.000000000001421     
   20.000000000002309     
   20.000000000000000     
   20.000000000002984     
   575.44754425720316     
   20.000000000015479     
   20.000000000024105     
   20.000000000039744     
   20.000000000004750     
   211.60488946504225     
   20.000000000009788     
   20.000000000006029     
   272.38597472573628     
   20.000000000040057     
   20.000000000015643     
   20.000000000000000     
   20.000000000153598     
   20.000000000132818     
   20.000000000079684     
   20.000000000244306     
   20.000000000025121     
   20.000000001429619     
   20.000000002154732     
   20.000000018616962     
   20.000000007972126     
   20.000000005258986     
   20.000000012195713     
   20.000000041681375     
   20.000000453202514     
   20.000000063155237     
   20.000000041966544     
   20.000000211070756     
   20.000000094773341     
   20.000004361148218     
   20.000000672479171     
   20.000000456177276     
   20.000002117314001     
   20.000000988949193     
   20.000002325103679     
   20.000000140861946     
   20.000004895774691     
   20.000003168761317     
   20.000001519926684     
   20.000001091465361     
   20.000036830388872     
   20.000006335953206     
   20.000004388224053     
   20.000018782825279     
   20.000009129400016     
   20.000001440295165     
   255.49280073426365     
   20.000276691542137     
   20.000052808160778     
   20.000037225026599     
   20.000145854298747     
   20.000073769872806     
   20.000013027284925     
   20.000298884555033     
   20.000193764158745     
   20.000075718204620     
   20.000148517386922     
   20.001833454264421     
   20.000387971003121     
   20.000279424651833     
   20.001007539181327     
   20.000533805357634     
   20.000104135596452     
   20.000102075214198     
   20.010729572144328     
   20.002516393874064     
   20.001850802114802     
   20.006137732314876     
   20.003392270852711     
   20.000733527481604     
   20.010433291609651     
   20.007241666991195     
   20.003196627551809     
   20.005778776338818     
   20.055431073719355     
   20.014408772217564     
   20.010823544888588     
   20.033071699251870     
   20.018965912220025     
   20.004563300058244     
   137.18093132574859     
   155.48914005155623     
   149.17012934612259     
   20.004130374375858     
   20.093480146065083     
   60.662549888304582     
   171.42983916604265     
   61.976444875399686     
   54.752915216553099     
   69.200366151736432     
   20.252955162784456     
   174.81451423749033     
   125.71198686800939     
   186.17757494656234     
   20.072891110724079     
   20.055896318839462     
   30.598909174375692     
   122.91978964346757     
   50.477280417195075     
   29.805011349274032     
   63.065331626318375     
   20.025073797087135     
   44.957826916357490     
   146.66144937413046     
   20.122243965667398     
   20.157494738122651     
   198.73116847686109     
   98.024899697894597     
   84.797400324271081     
   53.281519034669984     
   21.854626112773893     
   47.288928349869991     
   20.646470170829669     
   20.585572438890175     
   33.128962910610944     
   22.163636948093188     
   218.87308424272166     
   20.324855003639787     
   20.254683810517466     
   135.41024755230478     
   20.717149292231213     
   130.64356962891330     
   32.466474220580395     
   75.304711180498330     
   22.047326602155099     
   82.190660858192160     
   86.146909021586211     
   77.120405729051470     
   139.15460202728974     
   20.405514641202046     
   67.927005031821793     
   36.579805078262972     
   37.812503216227313     
   181.60259072094530     
   41.473993455446859     
   209.01657478232718     
   27.774530191006885     
   29.077379120716355     
   31.908739815479457     
   107.16234724672253     
   216.97091408792605     
   22.531953316594915     
   90.473168927273406     
   200.41210886670581     
   20.000000000471136     
   29.662260668657467     
   30.557857845844644     
   239.89265679046233     
   20.000000004278203     
   20.000000000775927     
   25.902795366234422     
   20.521062795736150     
   33.920014574955303     
   58.185426471005556     
   379.03456078040114     
   249.46774022811030     
   162.58589171363204     
   188.76094063820281     
   84.380705467088347     
   46.788361967881343     
   30.027614608634327     
   23.357909005232592     
   20.997906230696724     
   20.261767736907590     
   20.061318179026028     
   20.012658816960592     
   20.002306624436521     
   20.000369527741899     
   20.000052502940310     
   20.000006452691046     
   20.000000727807027     
   20.000000070563122     
   20.000000006117194     
   20.000000002636177     
   20.000000001126931     
   20.000000001843773     
   20.000000000195048     
   20.000000000322952     
   20.000000000012761     
   20.000000000000835     
   20.000000000000021     
   20.000000000000000     
   20.000000000248136     
   20.000000000000000     
   20.000000000000000     
   20.000000000000156     
   20.000000000003755     
   20.000000000063814     
   20.000000000389448     
   20.000000000936851     
   20.000000000605851     
   20.000000002237449     
   20.000000001459330     
   20.000000028190009     
   20.000000312407959     
   20.000003064588487     
   20.000026597504760     
   20.000203779519744     
   20.001377027563503     
   20.008214569573219     
   20.043265049112794     
   20.201223684310641     
   20.827963829240375     
   23.017885402620120     
   29.789198508200140     
   34.119441284293536     
   31.663150102633306     
   40.170077330682822     
   48.281111179005926     
   93.068149265755466     
   189.62591984878173     
   376.41565538456098     
   35.217361410163861     
   103.57914377028555     
   113.72818876758203     
   65.926684913794119     
   20.000000000100528     
   41.557063039279164     
   165.33952866413904     
   25.575177316718896     
   47.513512076893122     
   22.196685820991220     
   20.000000000157417     
   23.354437127326904     
   39.646726809250922     
   144.08376303323666     
   26.611397479801507     
   228.28096446276970     
   21.735399107585174     
   28.274252316006955     
   72.125487173003393     
   49.335075723642014     
   24.606190487028886     
   43.910583369866970     
   22.861362721425220     
   23.033932096162104     
   22.018469281541279     
   25.113780696016889     
   23.806557923061181     
   55.950143548348322     
   172.54235568603531     
   88.260000235060645     
   43.597877390434554     
   22.651906235423457     
   20.794114175985374     
   24.956076153382224     
   45.888399664603050     
   28.605732123764842     
   23.980555594886468     
   27.307333460014398     
   21.126516463187183     
   37.021787155390378     
   21.435831779185278     
   21.479985930537055     
   20.833413420794376     
   21.304589840676606     
   21.083911009911169     
   70.992829006439365     
   21.669043029424515     
   74.903458108437135     
   20.454900892395994     
   20.936357420624553     
   39.602778563961053     
   20.689725355529767     
   20.119103191075361     
   20.511918681306643     
   38.603020845050992     
   35.029773278174936     
   41.204989752507338     
   20.431989678037144     
   20.193702655316514     
   93.586533607674426     
   20.142893341431463     
   117.76448635399116     
   20.330087698936715     
   20.274171168941894     
   20.024898476228607     
   20.165614668554976     
   20.203768582956627     
   108.60298399465017     
   20.137325777146089     
   20.167206789190232     
   20.106161649073766     
   20.125365770162070     
   20.030728582555714     
   20.100969221074873     
   20.041615955603199     
   20.075803017647733     
   20.060723911111253     
   20.045286636798476     
   20.004552036223824     
   20.021781798271419     
   20.035687776304471     
   20.026275911981141     
   20.020728983953418     
   20.005865658842488     
   20.007967429209288     
   20.015242383303935     
   20.011961514070641     
   20.008714292717162     
   20.000747152255279     
   20.003944902389357     
   20.006732618470284     
   20.004838497471081     
   20.003745273459021     
   20.000960493160299     
   20.001358644226983     
   20.002698864560656     
   20.002072488144965     
   20.001483007191965     
   20.000107123622211     
   20.000631149082480     
   20.001121004125832     
   20.000792023595022     
   20.000599754806736     
   20.000145058384103     
   20.000203175023163     
   20.000422848385334     