# vtk DataFile Version 2.0
 temperature
 ASCII
 DATASET UNSTRUCTURED_GRID
 POINTS         773  double
   0.0000000000000000        0.0000000000000000        0.0000000000000000     
   3.5000000000000000        0.0000000000000000        0.0000000000000000     
   3.5000000000000000        40.000000000000000        0.0000000000000000     
   0.0000000000000000        40.000000000000000        0.0000000000000000     
  0.43750000000000000        0.0000000000000000        0.0000000000000000     
  0.87500000000000000        0.0000000000000000        0.0000000000000000     
   1.3125000000000000        0.0000000000000000        0.0000000000000000     
   1.7500000000000000        0.0000000000000000        0.0000000000000000     
   2.1875000000000000        0.0000000000000000        0.0000000000000000     
   2.6250000000000000        0.0000000000000000        0.0000000000000000     
   3.0625000000000000        0.0000000000000000        0.0000000000000000     
   3.5000000000000000       0.50000000000000000        0.0000000000000000     
   3.5000000000000000        1.0000000000000000        0.0000000000000000     
   3.5000000000000000        1.5000000000000000        0.0000000000000000     
   3.5000000000000000        2.0000000000000000        0.0000000000000000     
   3.5000000000000000        2.5000000000000000        0.0000000000000000     
   3.5000000000000000        3.0000000000000000        0.0000000000000000     
   3.5000000000000000        3.5000000000000000        0.0000000000000000     
   3.5000000000000000        4.0000000000000000        0.0000000000000000     
   3.5000000000000000        4.5000000000000000        0.0000000000000000     
   3.5000000000000000        5.0000000000000000        0.0000000000000000     
   3.5000000000000000        5.5000000000000000        0.0000000000000000     
   3.5000000000000000        6.0000000000000000        0.0000000000000000     
   3.5000000000000000        6.5000000000000000        0.0000000000000000     
   3.5000000000000000        7.0000000000000000        0.0000000000000000     
   3.5000000000000000        7.5000000000000000        0.0000000000000000     
   3.5000000000000000        8.0000000000000000        0.0000000000000000     
   3.5000000000000000        8.5000000000000000        0.0000000000000000     
   3.5000000000000000        9.0000000000000000        0.0000000000000000     
   3.5000000000000000        9.5000000000000000        0.0000000000000000     
   3.5000000000000000        10.000000000000000        0.0000000000000000     
   3.5000000000000000        10.500000000000000        0.0000000000000000     
   3.5000000000000000        11.000000000000000        0.0000000000000000     
   3.5000000000000000        11.500000000000000        0.0000000000000000     
   3.5000000000000000        12.000000000000000        0.0000000000000000     
   3.5000000000000000        12.500000000000000        0.0000000000000000     
   3.5000000000000000        13.000000000000000        0.0000000000000000     
   3.5000000000000000        13.500000000000000        0.0000000000000000     
   3.5000000000000000        14.000000000000000        0.0000000000000000     
   3.5000000000000000        14.500000000000000        0.0000000000000000     
   3.5000000000000000        15.000000000000000        0.0000000000000000     
   3.5000000000000000        15.500000000000000        0.0000000000000000     
   3.5000000000000000        16.000000000000000        0.0000000000000000     
   3.5000000000000000        16.500000000000000        0.0000000000000000     
   3.5000000000000000        17.000000000000000        0.0000000000000000     
   3.5000000000000000        17.500000000000000        0.0000000000000000     
   3.5000000000000000        18.000000000000000        0.0000000000000000     
   3.5000000000000000        18.500000000000000        0.0000000000000000     
   3.5000000000000000        19.000000000000000        0.0000000000000000     
   3.5000000000000000        19.500000000000000        0.0000000000000000     
   3.5000000000000000        20.000000000000000        0.0000000000000000     
   3.5000000000000000        20.500000000000000        0.0000000000000000     
   3.5000000000000000        21.000000000000000        0.0000000000000000     
   3.5000000000000000        21.500000000000000        0.0000000000000000     
   3.5000000000000000        22.000000000000000        0.0000000000000000     
   3.5000000000000000        22.500000000000000        0.0000000000000000     
   3.5000000000000000        23.000000000000000        0.0000000000000000     
   3.5000000000000000        23.500000000000000        0.0000000000000000     
   3.5000000000000000        24.000000000000000        0.0000000000000000     
   3.5000000000000000        24.500000000000000        0.0000000000000000     
   3.5000000000000000        25.000000000000000        0.0000000000000000     
   3.5000000000000000        25.500000000000000        0.0000000000000000     
   3.5000000000000000        26.000000000000000        0.0000000000000000     
   3.5000000000000000        26.500000000000000        0.0000000000000000     
   3.5000000000000000        27.000000000000000        0.0000000000000000     
   3.5000000000000000        27.500000000000000        0.0000000000000000     
   3.5000000000000000        28.000000000000000        0.0000000000000000     
   3.5000000000000000        28.500000000000000        0.0000000000000000     
   3.5000000000000000        29.000000000000000        0.0000000000000000     
   3.5000000000000000        29.500000000000000        0.0000000000000000     
   3.5000000000000000        30.000000000000000        0.0000000000000000     
   3.5000000000000000        30.500000000000000        0.0000000000000000     
   3.5000000000000000        31.000000000000000        0.0000000000000000     
   3.5000000000000000        31.500000000000000        0.0000000000000000     
   3.5000000000000000        32.000000000000000        0.0000000000000000     
   3.5000000000000000        32.500000000000000        0.0000000000000000     
   3.5000000000000000        33.000000000000000        0.0000000000000000     
   3.5000000000000000        33.500000000000000        0.0000000000000000     
   3.5000000000000000        34.000000000000000        0.0000000000000000     
   3.5000000000000000        34.500000000000000        0.0000000000000000     
   3.5000000000000000        35.000000000000000        0.0000000000000000     
   3.5000000000000000        35.500000000000000        0.0000000000000000     
   3.5000000000000000        36.000000000000000        0.0000000000000000     
   3.5000000000000000        36.500000000000000        0.0000000000000000     
   3.5000000000000000        37.000000000000000        0.0000000000000000     
   3.5000000000000000        37.500000000000000        0.0000000000000000     
   3.5000000000000000        38.000000000000000        0.0000000000000000     
   3.5000000000000000        38.500000000000000        0.0000000000000000     
   3.5000000000000000        39.000000000000000        0.0000000000000000     
   3.5000000000000000        39.500000000000000        0.0000000000000000     
   3.0625000000000000        40.000000000000000        0.0000000000000000     
   2.6250000000000000        40.000000000000000        0.0000000000000000     
   2.1875000000000000        40.000000000000000        0.0000000000000000     
   1.7500000000000000        40.000000000000000        0.0000000000000000     
   1.3125000000000000        40.000000000000000        0.0000000000000000     
  0.87500000000000000        40.000000000000000        0.0000000000000000     
  0.43750000000000000        40.000000000000000        0.0000000000000000     
   0.0000000000000000        39.500000000000000        0.0000000000000000     
   0.0000000000000000        39.000000000000000        0.0000000000000000     
   0.0000000000000000        38.500000000000000        0.0000000000000000     
   0.0000000000000000        38.000000000000000        0.0000000000000000     
   0.0000000000000000        37.500000000000000        0.0000000000000000     
   0.0000000000000000        37.000000000000000        0.0000000000000000     
   0.0000000000000000        36.500000000000000        0.0000000000000000     
   0.0000000000000000        36.000000000000000        0.0000000000000000     
   0.0000000000000000        35.500000000000000        0.0000000000000000     
   0.0000000000000000        35.000000000000000        0.0000000000000000     
   0.0000000000000000        34.500000000000000        0.0000000000000000     
   0.0000000000000000        34.000000000000000        0.0000000000000000     
   0.0000000000000000        33.500000000000000        0.0000000000000000     
   0.0000000000000000        33.000000000000000        0.0000000000000000     
   0.0000000000000000        32.500000000000000        0.0000000000000000     
   0.0000000000000000        32.000000000000000        0.0000000000000000     
   0.0000000000000000        31.500000000000000        0.0000000000000000     
   0.0000000000000000        31.000000000000000        0.0000000000000000     
   0.0000000000000000        30.500000000000000        0.0000000000000000     
   0.0000000000000000        30.000000000000000        0.0000000000000000     
   0.0000000000000000        29.500000000000000        0.0000000000000000     
   0.0000000000000000        29.000000000000000        0.0000000000000000     
   0.0000000000000000        28.500000000000000        0.0000000000000000     
   0.0000000000000000        28.000000000000000        0.0000000000000000     
   0.0000000000000000        27.500000000000000        0.0000000000000000     
   0.0000000000000000        27.000000000000000        0.0000000000000000     
   0.0000000000000000        26.500000000000000        0.0000000000000000     
   0.0000000000000000        26.000000000000000        0.0000000000000000     
[...]
 CELL_DATA        1368
 SCALARS T double
 LOOKUP_TABLE default
   20.024501931843478     
   20.455954070520740     
   1658.5077362445606     
   27.650250792665098     
   20.000000000000000     
   20.073864237114726     
   1263.8176221839321     
   20.061411558599563     
   20.000615356945062     
   20.046408841607569     
   20.001351135771852     
   24.308027184973771     
   20.035950843833628     
   28.303071854109930     
   24.849598639431729     
   1196.4135768010090     
   1659.2301509235754     
   20.004545166497920     
   20.003624917652122     
   20.134664415321954     
   20.002683551158743     
   20.000020942150176     
   1723.0853041509577     
   20.000050804892364     
   20.019504121491860     
   20.496516687338460     
   20.001937979169099     
   20.093846708448549     
   20.028023274974053     
   20.000780587220433     
   20.147408963018730     
   20.000000000000000     
   20.368913725906605     
   20.523666684926635     
   20.560216534183912     
   20.000000000000000     
   20.008755823340735     
   20.000192505180447     
   20.001579021333022     
   20.000149414171752     
   20.000072539973583     
   20.038769069113197     
   20.000106444741139     
   27.191042861698630     
   20.005942362284291     
   359.19674506772975     
   352.65898735471211     
   20.027365137739697     
   20.043389919000745     
   664.22124964937427     
   665.62839854054050     
   20.001029383505987     
   20.009851501857220     
   20.000000000000000     
   1696.8633132514192     
   20.000000000000000     
   20.000000000000494     
   20.000014539569321     
   20.000006235509034     
   20.000027957052502     
   20.000000000000856     
   26.802497172403807     
   20.000059420623110     
   20.000000000003137     
   20.106915034811450     
   20.158723652756137     
   20.000390541022536     
   20.164633665313040     
   20.001432608312548     
   20.002402248667213     
   20.000000000000220     
   1663.0682595543908     
   20.000000000001357     
   20.002172953294306     
   20.000256167018904     
   20.000460663987866     
   20.000000000006864     
   20.000000000036778     
   20.000000000000000     
   333.65953912767469     
   20.000037423522752     
   20.000004868818216     
   178.98032607235061     
   20.000001585672781     
   96.692468386620419     
   20.006723752874713     
   20.010738154471014     
   330.29392785438176     
   20.000010675635728     
   831.94829068346507     
   20.000051509749785     
   20.000093347788390     
   34.253138669049946     
   20.000000000387143     
   776.35638478390069     
   20.000000263577967     
   25.431984442818607     
   20.000000000075829     
   20.000000435931575     
   20.000000000010882     
   177.82377275226838     
   20.000000000004743     
   170.19091218567698     
   170.97389730846288     
   20.000082737886036     
   20.000008817195095     
   20.000000000000110     
   20.000501309514515     
   20.000000000000000     
   20.000000000015334     
   21.220985719656536     
   451.40757140120741     
   20.730932981367925     
   20.000000092666678     
   20.000000000002117     
   20.000000000000000     
   95.465672011019919     
   20.217924678915463     
   95.541479749290005     
   20.000000014924847     
   20.000000000004658     
   20.000000083031100     
   20.000003539634907     
   96.129040317808787     
   20.059710925031105     
   235.78201346846353     
   20.000292704112066     
   20.000486669067637     
   20.000002276555140     
   20.011773054701042     
   20.000000000000103     
   20.000000133698517     
   460.21791951694047     
   20.014796729238530     
   20.000000000053547     
   20.000000000779952     
   20.003318847665394     
   55.689127631741528     
   1303.0061831508249     
   55.605613952189529     
   987.07235960588275     
   440.67490993369756     
   127.59198111198951     
   20.000000183095167     
   20.000001188926287     
   20.000000013841596     
   462.48547733047286     
   20.000000616974589     
   20.000000000024720     
   20.000000000053809     
   20.000000014672569     
   238.68646514167841     
   20.000000979359555     
   35.622210402987186     
   35.527515584038944     
   20.000000000118408     
   20.000000012017058     
   69.837733971625653     
   20.000003325423698     
   20.000000000551161     
   20.000000000165915     
   20.000000000002064     
   26.010006206064727     
   34.120515192148247     
   20.000016515174579     
   20.114041840174576     
   20.000000000556366     
   20.000000000000000     
   198.88978345671276     
   129.01505456626384     
   20.000000056679376     
   20.000000003833602     
   20.000000000261608     
   25.386318624256713     
   28.541768075915179     
   20.000000007930762     
   989.65486782841128     
   20.007499109686300     
   70.299758192317626     
   20.000000001196412     
   119.23468742498235     
   112.91529297316796     
   23.114261724515760     
   20.000000001636760     
   22.941435156398157     
   20.000000020513205     
   20.000002496636682     
   20.000004725063313     
   33.294716461411056     
   20.000000000000139     
   211.97616813776852     
   20.000332392839198     
   20.785009311733681     
   20.770034130638752     
   21.216213631610565     
   20.000000000000000     
   540.39538449551878     
   20.000000032823557     
   20.000000000000096     
   20.000000002538521     
   20.715543522525877     
   20.000000005313840     
   67.868661000086931     
   20.000000690279467     
   20.000001318618377     
   20.000000062626832     
   64.616381168477233     
   20.314576317004207     
   20.000000003430255     
   20.000000000000213     
   20.000000007170648     
   20.000000000000909     
   20.375502592410403     
   20.000000000000000     
   20.000000085144851     
   20.000000001834103     
   20.000000244486365     
   20.000000828794345     
   20.000544294574009     
   20.000000010912355     
   20.213191396334459     
   20.000000000000281     
   20.000002592274861     
   32.150051150379724     
   20.000000355876971     
   28.669361034828697     
   20.000000333128973     
   20.000000000869864     
   20.000000000000110     
   20.000000001260748     
   20.000000033260751     
   20.000000000000615     
   20.058301768690590     
   20.000000000023952     
   20.106925937352464     
   20.000000000597598     
   20.000001771949755     
   20.000000000000107     
   20.014434931277311     
   20.000002377378618     
   22.415754757550506     
   23.148176736497078     
   269.16146002498920     
   20.023815837882353     
   31.735531904866910     
   41.458378871777171     
   1413.6568325597223     
   39.929547664153937     
   20.003239310361302     
   20.000000000408146     
   20.000000000086818     
   20.000011746570305     
   20.000000030767620     
   20.027712977238007     
   1492.0451239942222     
   20.000000000058300     
   20.000000000279609     
   20.000000002623686     
   20.000015497242625     
   20.000000042062574     
   20.000000000001204     
   689.70210171514657     
   535.45038467285224     
   20.000070852041009     
   20.000005595158871     
   20.000000321892657     
   20.006531187752451     
   20.000000000000796     
   20.000092051762884     
   1437.1865569784065     
   21.245358326881433     
   20.001262785537147     
   20.000000020633490     
   20.000000049411053     
   20.000000024233394     
   20.000000000001048     
   20.000389534393396     
   20.000000000000952     
   1346.4452610666149     
   1179.7454642253097     
   20.000000000000000     
   1220.6312398663961     
   20.000000000001336     
   20.000498317156975     
   1339.1276128559452     
   20.000004289006156     
   22.230876670085490     
   830.84581328114598     
   1360.5653041852138     
   20.000000000010537     
   20.386831754424222     
   20.000000000000000     
   20.000000000190628     
   20.000000022713106     
   20.000000046647887     
   20.000000000039559     
   20.000000000000203     
   20.000000000011660     
   20.000000000000210     
   880.55438484738249     
   20.110193663376275     
   20.000000000128161     
   606.04062489676869     
   20.000000000000220     
   20.000000000026180     
   20.028589608675475     
   20.006740493430332     
   20.000000000000000     
   20.000000000000000     
   1139.5505854381793     
   20.000000000000664     
   1264.8934987544967     
   1029.8784280313444     
   20.000000041370505     
   20.000000028305575     
   1448.6940957873073     
   22.042791119568616     
   275.24712752458987     
   20.000045933488273     
   20.000000000000117     
   20.000000000000114     
   20.000000000000803     
   733.05880048620224     
   20.000000006776027     
   20.000000000000515     
   20.000000000256112     
   20.000000004888566     
   20.000000925642301     
   1284.2211140406853     
   743.17395559416707     
   20.000000000000327     
   20.000000000000441     
   29.736507843616408     
   1153.5251059654515     
   20.000000005377583     
   20.000000000002306     
   1182.8008845985785     
   1247.8977403532492     
   20.000001229117167     
   20.000000124696022     
   961.30188567968150     
   20.000000000000480     
   20.000000000013326     
   20.000000000003542     
   20.000000000005901     
   863.65962599378190     
   20.000000168163478     
   20.000000000007926     
   20.000000000015177     
   21.542804056016955     
   21.074698681515077     
   20.000000000003674     
   20.000000000000515     
   20.000002995255585     
   20.000000000001354     
   1096.7464520355825     
   20.000000000008246     
   990.48767210926974     
   20.000000000002068     
   806.28680363535648     
   20.000000000000313     
   921.39193260603111     
   722.75768301881067     
   994.09403906303180     
   1168.4236743271310     
   979.61395539896307     
   20.000000000001332     
   20.000000000000416     
   20.000000000001744     
   826.25141967399202     
   778.94530231785916     
   699.35239689122966     
   674.51847299694862     
   1066.8585126562964     
   601.97064687500381     
   20.000000005865772     
   20.000000000002679     
   20.000000000023736     
   20.000000000017945     
   1209.4486810393710     
   823.97577834852291     
   836.12155461102952     
   905.10726924723917     
   571.87300578013264     
   654.07783089221061     
   20.000000000016499     
   20.000000000010704     
   20.000000000162473     
   482.03631480687903     
   762.92117531193185     
   480.69486631049807     
   20.000000000033829     
   20.000000000416168     
   20.000000000655675     
   563.76176227132828     
   410.27760402150199     
   693.27236918088693     
   20.000000000142101     
   533.42240161228858     
   582.79908581328982     
   20.000000000029530     
   20.000000000252498     
   583.61012109514286     
   20.000000001385267     
   20.000000000303814     
   468.85495751936929     
   20.000000000886523     
   20.000000000179277     
   20.000000000118717     
   20.000000001584837     
   499.03415351152739     
   386.29858662199780     
   412.75894175570136     
   20.000000000041073     
   316.68405267094823     
   340.48749529015492     
   20.000000003729799     
   20.000000005405379     
   20.000000000065555     
   20.000000006123138     
   639.21150311737995     
   20.000000022509369     
   20.000000031376118     
   20.000000045982762     
   20.000000008604534     
   249.83748637673136     
   20.000000015999770     
   20.000000011106337     
   328.79080887638111     
   20.000000046453824     
   20.000000022771292     
   20.000000000089191     
   20.000000113674734     
   20.000000098465172     
   20.000000065531133     
   20.000000182536965     
   20.000000032637136     
   20.000000697798740     
   20.000000949914579     
   20.000004914341055     
   20.000002580541636     
   20.000001882965993     
   20.000003567236618     
   20.000009034517781     
   20.000055285856465     
   20.000012433333733     
   20.000009106477897     
   20.000031043428894     
   20.000016903584189     
   20.000308435853121     
   20.000074881111054     
   20.000055711976067     
   20.000178708738499     
   20.000100259863686     
   20.000164146580733     
   20.000022854139594     
   20.000288381463921     
   20.000203277196743     
   20.000116690721377     
   20.000092475985859     
   20.001559397522090     
   20.000411117961995     
   20.000310718737897     
   20.000937675854303     
   20.000542065556164     
   20.000133474866590     
   313.28297689140959     
   20.007221337756864     
   20.002058591094620     
   20.001576262802107     
   20.004451182568047     
   20.002651360962403     
   20.000710603380821     
   20.006594106471795     
   20.004639839729922     
   20.002315872686051     
   20.003866068875237     
   20.030452563182276     
   20.009374214276100     
   20.007294711188880     
   20.019357705059811     
   20.011939943425460     
   20.003448143974783     
   20.002853662112930     
   20.117118871006259     
   20.038902315548288     
   20.030750610582988     
   20.076691170103832     
   20.048805859155976     
   20.015216046345991     
   20.098844316957283     
   20.073355733378200     
   20.040024436379820     
   20.062891077465736     
   20.410896125050083     
   20.147216737182049     
   20.118201647939067     
   20.277540411404548     
   20.181448762115739     
   20.061225541726017     
   178.81135738340714     
   203.83837136154463     
   191.03573735298801     
   20.047801208568668     
   20.614927267965658     
   86.302999428509494     
   220.87380840369687     
   90.594997319590505     
   80.409056538948875     
   97.942777690582631     
   21.316602684644508     
   216.38776876565566     
   170.42746328341138     
   231.33542768951364     
   20.508528855286553     
   20.414562721843453     
   42.650444241454537     
   166.43390788550155     
   74.603227645545587     
   40.906735516064906     
   92.462493430396876     
   20.224753321091644     
   66.331656037343592     
   184.54916634068076     
   20.755928773737303     
   20.917511539735855     
   251.60729843534955     
   136.71013444706352     
   119.89082424743722     
   77.823275625871133     
   25.821108559340992     
   67.298377856446066     
   22.719302287543382     
   22.472247183432792     
   47.054148015096693     
   26.502254363102175     
   267.53133043251449     
   21.601722639106843     
   21.326983717540891     
   180.35750392409727     
   22.875285610730270     
   173.65405310604316     
   46.713332209378677     
   105.06517743788783     
   26.133577741656360     
   115.82743066361053     
   119.09360990953216     
   110.57750522325320     
   177.99045035170042     
   21.898045751689214     
   98.254306357337896     
   54.158914984501983     
   55.440016416214675     
   229.67381164335242     
   58.607292493919708     
   260.23945189468600     
   37.242612419712586     
   40.198958194446845     
   45.503552526369781     
   147.31022839114669     
   270.49793240944058     
   27.574279209143857     
   125.57468371479703     
   231.99995391225519     
   20.000000252830741     
   41.498373156382208     
   43.530445339978911     
   274.59427904878345     
   20.000001376160075     
   20.000000376390755     
   34.824046650630827     
   22.304402326274207     
   48.694536815086643     
   84.231164956816158     
   408.78294273772258     
   281.46841982873320     
   193.52167240736188     
   222.54889190810155     
   108.88235236210559     
   63.452347916431350     
   39.790010593070797     
   28.352555574565322     
   23.246467462094827     
   21.150953357465355     
   20.376969108500457     
   20.112384459813928     
   20.030653212064099     
   20.007591589385509     
   20.001720410313258     
   20.000348538521731     
   20.000066694379804     
   20.000011306575914     
   20.000001771638036     
   20.000000935189956     
   20.000000489281032     
   20.000000725347704     
   20.000000129212257     
   20.000000193477575     
   20.000000016281362     
   20.000000001865263     
   20.000000000193950     
   20.000000000018570     
   20.000000185224931     
   20.000000000007311     
   20.000000000082366     
   20.000000000837495     
   20.000000007826269     
   20.000000066185375     
   20.000000260993914     
   20.000000508009496     
   20.000000364623020     
   20.000000983828691     
   20.000000710578867     
   20.000006737766732     
   20.000041830704422     
   20.000236772790405     
   20.001222050818892     
   20.005742748433665     
   20.024570272427944     
   20.095842017844255     
   20.341038940481987     
   21.108131064670236     
   23.293951188723149     
   28.979959053282421     
   42.552533431059473     
   50.102394751818842     
   45.868727942180719     
   59.930586512526432     
   72.254152837652484     
   132.23251597740224     
   244.48240504770752     
   440.89112068339659     
   51.415334029818659     
   141.98040515821569     
   153.34572180151139     
   94.947876134045998     
   20.000000093332893     
   61.427211370793877     
   212.72566960545464     
   34.013313290813691     
   69.369543270830604     
   26.886257441933413     
   20.000000131262020     
   29.574192263993243     
   57.722976419229028     
   188.20031787289565     
   35.932591946330042     
   279.66475853528863     
   25.704260547211678     
   39.137149204859199     
   102.60659412179420     
   70.959548746510990     
   32.003616449156937     
   64.369942343025144     
   28.165172943526819     
   28.666036218949490     
   26.311596357197562     
   33.393446864033379     
   30.413335305088093     
   80.479793891798067     
   217.74767616601724     
   119.45535113739376     
   65.204818760085530     
   27.932133202425163     
   23.018626844761275     
   32.986629590914355     
   66.419746578706466     
   39.942244694403229     
   30.891566577425753     
   37.610732727678197     
   24.079617943524898     
   53.848156061289814     
   24.948301794698448     
   25.099493500992200     
   23.175798082320121     
   24.494466021015725     
   23.919409140220004     
   98.547899909915927     
   25.480404213594909     
   102.44078278985565     
   22.024586200153585     
   23.553270725090890     
   56.391987265510508     
   22.760860845350173     
   20.696200587078270     
   22.176390276933322     
   55.688330278463553     
   49.868580427672299     
   59.284560774225788     
   21.920326167082276     
   21.014259597795604     
   127.39970645725728     
   20.794580759876212     
   155.73147079319992     
   21.551879394064294     
   21.354677680079433     
   20.209719348297362     
   20.865959833411519     
   21.070052344660944     
   145.96906561404157     
   20.756910242565457     
   20.925658459786913     
   20.659825671704297     
   20.736341012941825     
   20.244263839404127     
   20.627567122021926     
   20.310895722077454     
   20.500605483990686     
   20.425196894679978     
   20.337229492043949     
   20.057089532203424     
   20.196159124683753     
   20.283161494519479     
   20.222288888578156     
   20.186620753625995     
   20.068724047668116     
   20.087568656779439     
   20.146546848785650     
   20.122625829064660     
   20.095548864015406     
   20.014421172507937     
   20.053189329616554     
   20.079081620690705     
   20.060973246547029     
   20.050488048380725     
   20.017302957519679     
   20.022751737189246     
   20.039058883617546     
   20.032171817058291     
   20.024744120201987     
   20.003285499344067     
   20.013164595478649     
   20.020154386596090     
   20.015346561585375     
   20.012503930876285     
   20.004100583605059     
   20.005344912470022     
   20.009515857608250     