# vtk DataFile Version 2.0
 temperature
 ASCII
 DATASET UNSTRUCTURED_GRID
 POINTS         773  double
   0.0000000000000000        0.0000000000000000        0.0000000000000000     
   3.5000000000000000        0.0000000000000000        0.0000000000000000     
   3.5000000000000000        40.000000000000000        0.0000000000000000     
   0.0000000000000000        40.000000000000000        0.0000000000000000     
  0.43750000000000000        0.0000000000000000        0.0000000000000000     
  0.87500000000000000        0.0000000000000000        0.0000000000000000     
   1.3125000000000000        0.0000000000000000        0.0000000000000000     
   1.7500000000000000        0.0000000000000000        0.0000000000000000     
   2.1875000000000000        0.0000000000000000        0.0000000000000000     
   2.6250000000000000        0.0000000000000000        0.0000000000000000     
   3.0625000000000000        0.0000000000000000        0.0000000000000000     
   3.5000000000000000       0.50000000000000000        0.0000000000000000     
   3.5000000000000000        1.0000000000000000        0.0000000000000000     
   3.5000000000000000        1.5000000000000000        0.0000000000000000     
   3.5000000000000000        2.0000000000000000        0.0000000000000000     
   3.5000000000000000        2.5000000000000000        0.0000000000000000     
   3.5000000000000000        3.0000000000000000        0.0000000000000000     
   3.5000000000000000        3.5000000000000000        0.0000000000000000     
   3.5000000000000000        4.0000000000000000        0.0000000000000000     
   3.5000000000000000        4.5000000000000000        0.0000000000000000     
   3.5000000000000000        5.0000000000000000        0.0000000000000000     
   3.5000000000000000        5.5000000000000000        0.0000000000000000     
   3.5000000000000000        6.0000000000000000        0.0000000000000000     
   3.5000000000000000        6.5000000000000000        0.0000000000000000     
   3.5000000000000000        7.0000000000000000        0.0000000000000000     
   3.5000000000000000        7.5000000000000000        0.0000000000000000     
   3.5000000000000000        8.0000000000000000        0.0000000000000000     
   3.5000000000000000        8.5000000000000000        0.0000000000000000     
   3.5000000000000000        9.0000000000000000        0.0000000000000000     
   3.5000000000000000        9.5000000000000000        0.0000000000000000     
   3.5000000000000000        10.000000000000000        0.0000000000000000     
   3.5000000000000000        10.500000000000000        0.0000000000000000     
   3.5000000000000000        11.000000000000000        0.0000000000000000     
   3.5000000000000000        11.500000000000000        0.0000000000000000     
   3.5000000000000000        12.000000000000000        0.0000000000000000     
   3.5000000000000000        12.500000000000000        0.0000000000000000     
   3.5000000000000000        13.000000000000000        0.0000000000000000     
   3.5000000000000000        13.500000000000000        0.0000000000000000     
   3.5000000000000000        14.000000000000000        0.0000000000000000     
   3.5000000000000000        14.500000000000000        0.0000000000000000     
   3.5000000000000000        15.000000000000000        0.0000000000000000     
   3.5000000000000000        15.500000000000000        0.0000000000000000     
   3.5000000000000000        16.000000000000000        0.0000000000000000     
   3.5000000000000000        16.500000000000000        0.0000000000000000     
   3.5000000000000000        17.000000000000000        0.0000000000000000     
   3.5000000000000000        17.500000000000000        0.0000000000000000     
   3.5000000000000000        18.000000000000000        0.0000000000000000     
   3.5000000000000000        18.500000000000000        0.0000000000000000     
   3.5000000000000000        19.000000000000000        0.0000000000000000     
   3.5000000000000000        19.500000000000000        0.0000000000000000     
   3.5000000000000000        20.000000000000000        0.0000000000000000     
   3.5000000000000000        20.500000000000000        0.0000000000000000     
   3.5000000000000000        21.000000000000000        0.0000000000000000     
   3.5000000000000000        21.500000000000000        0.0000000000000000     
   3.5000000000000000        22.000000000000000        0.0000000000000000     
   3.5000000000000000        22.500000000000000        0.0000000000000000     
   3.5000000000000000        23.000000000000000        0.0000000000000000     
   3.5000000000000000        23.500000000000000        0.0000000000000000     
   3.5000000000000000        24.000000000000000        0.0000000000000000     
   3.5000000000000000        24.500000000000000        0.0000000000000000     
   3.5000000000000000        25.000000000000000        0.0000000000000000     
   3.5000000000000000        25.500000000000000        0.0000000000000000     
   3.5000000000000000        26.000000000000000        0.0000000000000000     
   3.5000000000000000        26.500000000000000        0.0000000000000000     
   3.5000000000000000        27.000000000000000        0.0000000000000000     
   3.5000000000000000        27.500000000000000        0.0000000000000000     
   3.5000000000000000        28.000000000000000        0.0000000000000000     
   3.5000000000000000        28.500000000000000        0.0000000000000000     
   3.5000000000000000        29.000000000000000        0.0000000000000000     
   3.5000000000000000        29.500000000000000        0.0000000000000000     
   3.5000000000000000        30.000000000000000        0.0000000000000000     
   3.5000000000000000        30.500000000000000        0.0000000000000000     
   3.5000000000000000        31.000000000000000        0.0000000000000000     
   3.5000000000000000        31.500000000000000        0.0000000000000000     
   3.5000000000000000        32.000000000000000        0.0000000000000000     
   3.5000000000000000        32.500000000000000        0.0000000000000000     
   3.5000000000000000        33.000000000000000        0.0000000000000000     
   3.5000000000000000        33.500000000000000        0.0000000000000000     
   3.5000000000000000        34.000000000000000        0.0000000000000000     
   3.5000000000000000        34.500000000000000        0.0000000000000000     
   3.5000000000000000        35.000000000000000        0.0000000000000000     
   3.5000000000000000        35.500000000000000        0.0000000000000000     
   3.5000000000000000        36.000000000000000        0.0000000000000000     
   3.5000000000000000        36.500000000000000        0.0000000000000000     
   3.5000000000000000        37.000000000000000        0.0000000000000000     
   3.5000000000000000        37.500000000000000        0.0000000000000000     
   3.5000000000000000        38.000000000000000        0.0000000000000000     
   3.5000000000000000        38.500000000000000        0.0000000000000000     
   3.5000000000000000        39.000000000000000        0.0000000000000000     
   3.5000000000000000        39.500000000000000        0.0000000000000000     
   3.0625000000000000        40.000000000000000        0.0000000000000000     
   2.6250000000000000        40.000000000000000        0.0000000000000000     
   2.1875000000000000        40.000000000000000        0.0000000000000000     
   1.7500000000000000        40.000000000000000        0.0000000000000000     
   1.3125000000000000        40.000000000000000        0.0000000000000000     
  0.87500000000000000        40.000000000000000        0.0000000000000000     
  0.43750000000000000        40.000000000000000        0.0000000000000000     
   0.0000000000000000        39.500000000000000        0.0000000000000000     
   0.0000000000000000        39.000000000000000        0.0000000000000000     
   0.0000000000000000        38.500000000000000        0.0000000000000000     
   0.0000000000000000        38.000000000000000        0.0000000000000000     
   0.0000000000000000        37.500000000000000        0.0000000000000000     
   0.0000000000000000        37.000000000000000        0.0000000000000000     
   0.0000000000000000        36.500000000000000        0.0000000000000000     
   0.0000000000000000        36.000000000000000        0.0000000000000000     
   0.0000000000000000        35.500000000000000        0.0000000000000000     
   0.0000000000000000        35.000000000000000        0.0000000000000000     
   0.0000000000000000        34.500000000000000        0.0000000000000000     
   0.0000000000000000        34.000000000000000        0.0000000000000000     
   0.0000000000000000        33.500000000000000        0.0000000000000000     
   0.0000000000000000        33.000000000000000        0.0000000000000000     
   0.0000000000000000        32.500000000000000        0.0000000000000000     
   0.0000000000000000        32.000000000000000        0.0000000000000000     
   0.0000000000000000        31.500000000000000        0.0000000000000000     
   0.0000000000000000        31.000000000000000        0.0000000000000000     
   0.0000000000000000        30.500000000000000        0.0000000000000000     
   0.0000000000000000        30.000000000000000        0.0000000000000000     
   0.0000000000000000        29.500000000000000        0.0000000000000000     
   0.0000000000000000        29.000000000000000        0.0000000000000000     
   0.0000000000000000        28.500000000000000        0.0000000000000000     
   0.0000000000000000        28.000000000000000        0.0000000000000000     
   0.0000000000000000        27.500000000000000        0.0000000000000000     
   0.0000000000000000        27.000000000000000        0.0000000000000000     
   0.0000000000000000        26.500000000000000        0.0000000000000000     
   0.0000000000000000        26.000000000000000        0.0000000000000000     
[...]
 CELL_DATA        1368
 SCALARS T double
 LOOKUP_TABLE default
   20.543582756618555     
   23.839071271214230     
   1674.8343641823135     
   41.471424857683992     
   20.000000076102694     
   21.136339672876598     
   1278.1235801133860     
   21.033114983832711     
   20.055927387442289     
   20.849523279138278     
   20.091892486856789     
   35.588404184050177     
   20.785780124837721     
   43.429980168363102     
   36.781682407234186     
   1211.0343062088332     
   1675.9485278028799     
   20.203880719994295     
   20.181465793683788     
   21.784472465359602     
   20.147880969997800     
   20.007271961464085     
   1735.9479595825610     
   20.012682802663434     
   20.459849517183372     
   23.840553160624886     
   20.131381104578967     
   21.342502723103717     
   20.621071846656978     
   20.065889496939452     
   21.782886126801372     
   20.000000145377332     
   23.320619188387560     
   24.146217184347734     
   24.109265049167259     
   20.000000120352666     
   20.329645774532608     
   20.029939090486803     
   20.106841695594184     
   20.026263963523697     
   20.018066877897645     
   20.777637601848550     
   20.020914110707441     
   42.093551714121404     
   20.244705286529378     
   431.80987963935735     
   424.14006770232839     
   20.654677403231958     
   20.869278940207437     
   694.48623706705189     
   698.90833942955396     
   20.075813884825205     
   20.333812982810468     
   20.000000112538615     
   1707.7144894667779     
   20.000000096473460     
   20.000000301317186     
   20.006476924892411     
   20.003509092947890     
   20.008850998971443     
   20.000000400165728     
   40.727935873613248     
   20.014760301173958     
   20.000000853604678     
   21.524645494030114     
   21.954057228456506     
   20.049747932371094     
   21.894184298335169     
   20.107674973291896     
   20.147352050478744     
   20.000000242879114     
   1675.8595364806683     
   20.000000501110605     
   20.132901606925621     
   20.036222957962291     
   20.051784583418758     
   20.000001321306513     
   20.000003636700939     
   20.000000192189557     
   407.50496395511163     
   20.010258740177274     
   20.003111190174224     
   246.15470613677101     
   20.001684687390092     
   150.70869310407690     
   20.276414197848204     
   20.368452267034243     
   403.64069530899002     
   20.005278356346253     
   858.78539417742093     
   20.014460953782805     
   20.020660437216154     
   59.954650869716254     
   20.000014684613269     
   802.67062531606030     
   20.000625357997237     
   40.945300299327151     
   20.000005512869887     
   20.000779097957619     
   20.000001748342726     
   244.49601516132486     
   20.000001069418843     
   212.97236065221418     
   215.97389989845266     
   20.018427416102266     
   20.004432244321475     
   20.000000186960008     
   20.050262280795707     
   20.000000152315430     
   20.000002134844703     
   26.741618164005970     
   518.47328569071476     
   25.689146331404594     
   20.000330146995946     
   20.000000667204947     
   20.000000076596958     
   132.79809346559770     
   22.653427148171666     
   134.38326799076032     
   20.000126960057486     
   20.000001076171856     
   20.000296135607815     
   20.002955841038393     
   149.73226637756500     
   21.185932984048449     
   305.14576903740203     
   20.041188195339569     
   20.056015129373357     
   20.002138384507724     
   20.367878243428926     
   20.000000244240606     
   20.000417610485623     
   528.91278734555544     
   20.502725252709961     
   20.000004508291749     
   20.000021972609801     
   20.202017171076516     
   84.689690685151291     
   1319.5791949963232     
   85.666324483818002     
   1006.9742592427343     
   479.94489869922700     
   186.70020272844928     
   20.000494433073282     
   20.001449234783273     
   20.000100020431844     
   502.72727504923085     
   20.000978374642866     
   20.000002867925314     
   20.000004545657884     
   20.000124291006166     
   309.09569073394272     
   20.001370167760001     
   55.916349350400395     
   56.348115989102503     
   20.000007218272660     
   20.000086730590883     
   114.72470428538330     
   20.002401157899229     
   20.000017963297957     
   20.000008774148146     
   20.000000650322868     
   37.609366706708840     
   59.591931482701710     
   20.006441047054519     
   21.484129258199989     
   20.000018171893856     
   20.000000070365271     
   242.50460510595454     
   189.01597588360369     
   20.000230573480653     
   20.000050538021551     
   20.000011612156403     
   40.766630007826258     
   47.967700861784920     
   20.000065664300330     
   1011.6291195249790     
   20.275975444774954     
   115.76513378650591     
   20.000028480861143     
   160.70898882834331     
   152.48156197395380     
   34.361164202791180     
   20.000034130256946     
   32.224758433200698     
   20.000129282056239     
   20.002357224129771     
   20.003453866363294     
   54.817501194433866     
   20.000000180220681     
   257.68487323278396     
   20.041450686320029     
   24.914080640011921     
   24.894502572912153     
   27.682159878005702     
   20.000000091382358     
   578.24208760604893     
   20.000152643052502     
   20.000000160708279     
   20.000044520046956     
   25.569444319754183     
   20.000069035025255     
   101.28800035805224     
   20.001093767278952     
   20.001609600139179     
   20.000294330327073     
   96.297408853056311     
   22.888641446703534     
   20.000052959796701     
   20.000000196759032     
   20.000082087685914     
   20.000000369237338     
   23.638922186058675     
   20.000000079960358     
   20.000350935834341     
   20.000032575517643     
   20.000662104496865     
   20.001141183826558     
   20.056555581592537     
   20.000105835620094     
   22.596199690867735     
   20.000000224702923     
   20.002131447082888     
   52.711162688266739     
   20.000735898797934     
   48.408193649032441     
   20.000790370543655     
   20.000020916239901     
   20.000000126022798     
   20.000025628739035     
   20.000182610263440     
   20.000000296171702     
   21.159594562069000     
   20.000002794068955     
   21.656450155507912     
   20.000016460980028     
   20.002155964180382     
   20.000000139602051     
   20.491319966754599     
   20.002551500157558     
   30.710500568688573     
   34.552648699099116     
   323.19220222248805     
   20.576655339253502     
   50.280614872708242     
   65.620081554619375     
   1433.0350820621447     
   62.721252021048841     
   20.197279842802264     
   20.000013344233288     
   20.000005331920406     
   20.006676796918242     
   20.000193104389783     
   20.718263537529737     
   1514.4898202338602     
   20.000004136901183     
   20.000010479320441     
   20.000039624400774     
   20.007826995364404     
   20.000230626140549     
   20.000000356903080     
   737.69844353690758     
   569.87053402992876     
   20.019609550685121     
   20.003589849429840     
   20.000663552524934     
   20.296210656876720     
   20.000000355081379     
   20.022793780119052     
   1458.1754830653072     
   27.884345738244313     
   20.095736004387330     
   20.000150960666449     
   20.000200960879191     
   20.000131671016902     
   20.000000365577996     
   20.054701404331038     
   20.000000332474148     
   1379.7000909591322     
   1188.2266934295526     
   20.000000059362087     
   1250.2147215801947     
   20.000000406799259     
   20.063044565894980     
   1365.2153996390480     
   20.003125025637427     
   29.387416687992786     
   865.22484381731761     
   1387.9621796724880     
   20.000001441097115     
   23.751850088389183     
   20.000000119119012     
   20.000008490033824     
   20.000143016581767     
   20.000219413950816     
   20.000003340028595     
   20.000000182684989     
   20.000001590991246     
   20.000000150585887     
   918.06288475831605     
   21.709316066232471     
   20.000006591469507     
   654.65213760084396     
   20.000000132075478     
   20.000002568507142     
   20.741956278241197     
   20.306130453200698     
   20.000000074914571     
   20.000000112448507     
   1174.1670531283046     
   20.000000257390543     
   1287.8828621012972     
   1067.4864125990239     
   20.000195859953568     
   20.000152795915927     
   1476.8872233157128     
   28.879506582838030     
   327.71978415815954     
   20.012953088228635     
   20.000000171483723     
   20.000000095755716     
   20.000000402782039     
   776.39269278920165     
   20.000065370274335     
   20.000000258548638     
   20.000011393164677     
   20.000054980944931     
   20.001463288196742     
   1316.1980274598316     
   762.19387071219558     
   20.000000157201807     
   20.000000318413651     
   46.726930768183564     
   1196.6239786404835     
   20.000060692934550     
   20.000000601223391     
   1210.5907418066690     
   1286.4108907417622     
   20.001720766814227     
   20.000443443367651     
   1003.7561729666172     
   20.000000269985748     
   20.000001528128486     
   20.000000795926105     
   20.000000941536687     
   908.43850752861101     
   20.000526086738276     
   20.000001287434671     
   20.000001745514453     
   28.334238024967672     
   26.060516037161005     
   20.000000687690239     
   20.000000216890360     
   20.002463889319102     
   20.000000521914448     
   1137.5462411637423     
   20.000001111823561     
   1034.6992999160630     
   20.000000547673963     
   855.55204905494554     
   20.000000203777557     
   970.48951023843870     
   773.64142125195497     
   1029.4096846560722     
   1204.4668424684078     
   1031.4492797821902     
   20.000000483838594     
   20.000000224417068     
   20.000000423774349     
   868.28005417074917     
   834.54945932238218     
   756.71220935558131     
   729.38671265567416     
   1114.5901961994712     
   657.65505774853568     
   20.000056635482210     
   20.000000580469749     
   20.000002329433460     
   20.000002091407051     
   1230.7130512938545     
   883.30253872435628     
   887.67863737736525     
   960.85705542841606     
   624.28727273820562     
   714.75770740573910     
   20.000002261661940     
   20.000001750868872     
   20.000007113378338     
   554.34423783355783     
   825.29335086327274     
   552.22918750765018     
   20.000002802677741     
   20.000011383060336     
   20.000015415777142     
   622.79624493912047     
   465.21501986571144     
   758.37252171974660     
   20.000006221784446     
   604.61795711516129     
   644.45955356002958     
   20.000002448917989     
   20.000009463308178     
   652.91505420949261     
   20.000024041942254     
   20.000009766200247     
   530.93075395310871     
   20.000017843767516     
   20.000009290492763     
   20.000007266663541     
   20.000027504254938     
   558.18713760545700     
   450.44267929172588     
   474.08313067119389     
   20.000002883236476     
   381.35882617613674     
   403.09438650599719     
   20.000056291372371     
   20.000070072931535     
   20.000003935014838     
   20.000069813672770     
   706.74071737054612     
   20.000162771066442     
   20.000197406858508     
   20.000248749467939     
   20.000084289780261     
   294.42938136557905     
   20.000133718970336     
   20.000107450823993     
   395.99977937732950     
   20.000251565828432     
   20.000164676568126     
   20.000004569279959     
   20.000348713292706     
   20.000302678840598     
   20.000230149664741     
   20.000564784096106     
   20.000204213550187     
   20.001254592475430     
   20.001501274082003     
   20.004041856608932     
   20.002750591642506     
   20.002281767341881     
   20.003342013816951     
   20.005788041365371     
   20.017130656386684     
   20.007049971556057     
   20.005842988666600     
   20.012177516231503     
   20.008460776148858     
   20.048160243486652     
   20.020678278129434     
   20.017289590152991     
   20.034834800799104     
   20.024606974640356     
   20.025646984610109     
   20.010148399852500     
   20.035947183174681     
   20.028210759343853     
   20.020262743908855     
   20.018167138332970     
   20.128207066715049     
   20.057615452461949     
   20.048595328071737     
   20.094680278052522     
   20.067986981896713     
   20.029260851882899     
   383.61653128724379     
   20.325512018636751     
   20.152653662161473     
   20.129636859945386     
   20.243556889389431     
   20.177753660228404     
   20.080159707593864     
   20.242069001536503     
   20.188718918236010     
   20.127444497973034     
   20.174213974365291     
   20.785914619147324     
   20.383999623916303     
   20.328990596366229     
   20.597699920327965     
   20.444640969242386     
   20.208776850368711     
   20.140546976918777     
   21.807729723397152     
   20.919111906369853     
   20.794074060062286     
   21.396147540762549     
   21.055817595019995     
   20.516359957719061     
   21.287242315848104     
   21.037018221025100     
   20.732753975778731     
   20.969853638553438     
   23.965193622311411     
   22.096053131824757     
   21.825801736107199     
   23.111832698162111     
   22.385102387036799     
   21.215972422138837     
   235.06329604796599     
   269.16981424147428     
   246.04586446967505     
   20.795030426741704     
   25.137149815266365     
   129.50996984102019     
   285.90517274279114     
   140.56652230460898     
   126.99288081351887     
   144.73753785632468     
   28.307405440589630     
   268.27026823655899     
   234.40670446135655     
   287.84356564181422     
   24.560305200515785     
   24.003631466120176     
   70.554200958686110     
   228.70281099998124     
   119.99080378682400     
   66.543726017379441     
   143.81740516556908     
   22.729667377188040     
   108.26860052215895     
   233.22852742941276     
   25.862471606725347     
   26.623594861541886     
   319.18273189247674     
   195.48166467975491     
   175.16945731624475     
   122.37016504517008     
   40.212804080695093     
   103.53349428646412     
   33.316558574012355     
   32.163792806280277     
   77.947353992998046     
   41.470018073516485     
   326.81569677237388     
   29.471123386764049     
   28.382962927385481     
   242.87823919555510     
   33.312391757184166     
   233.46897363367148     
   79.785824044564549     
   151.85747424560032     
   40.182925243306649     
   168.79656339627266     
   169.28535243950469     
   165.05980628444775     
   229.12288846887881     
   30.551542893462827     
   149.39446240334073     
   93.107066125094761     
   92.956066883328745     
   291.26041343178338     
   91.000645080366709     
   324.21787830361683     
   60.141953318389916     
   67.187679566602711     
   77.047779732972401     
   206.60277140917302     
   337.37193960980915     
   44.871910159348829     
   179.03692241019431     
   267.95034648242085     
   20.000514574068404     
   70.221316921991829     
   75.059489144112845     
   313.35759684442064     
   20.001459299628667     
   20.000673297230893     
   59.755396779864377     
   31.974326447839978     
   81.483118154041335     
   129.74499595763925     
   439.35907747006519     
   316.51934591124410     
   230.26356013778138     
   261.99743471064511     
   142.78874245040294     
   91.385549528258508     
   60.397067203469170     
   42.177742608095087     
   31.762340192059945     
   25.951071801130965     
   22.911750802295604     
   21.354006381103677     
   20.604015968046561     
   20.255721460876817     
   20.103192215458819     
   20.039017918548051     
   20.014466237560949     
   20.004963474864017     
   20.001645308040047     
   20.001123535943449     
   20.000761106490256     
   20.000994133388804     
   20.000344280296943     
   20.000452917549975     
   20.000100729495788     
   20.000027754658884     
   20.000007239472609     
   20.000001799342165     
   20.000572487122302     
   20.000001400243427     
   20.000005859027528     
   20.000023202519802     
   20.000087391399269     
   20.000310918386614     
   20.000702920025343     
   20.001044731960448     
   20.000856437226528     
   20.001548937528284     
   20.001274173557558     
   20.004886168053357     
   20.014577724845605     
   20.041308990348611     
   20.111262458512915     
   20.284715879666724     
   20.692631468185549     
   21.604754431872220     
   23.545039522125041     
   27.478796951195534     
   35.101566376825836     
   49.287510178866576     
   74.777948005652561     
   86.960044209535866     
   80.183034365757877     
   101.70688225666507     
   118.99542621410318     
   193.59690001011546     
   316.34211771485445     
   514.28881583754549     
   87.408491264532671     
   198.66411511662218     
   210.07986441082346     
   143.87102268625040     
   20.000380848109280     
   102.02091499810845     
   275.05027313268977     
   57.622113217886223     
   110.58459270131519     
   43.873016902074561     
   20.000467108961331     
   49.761819855103788     
   94.636043987323660     
   247.80668012769101     
   60.774820443195445     
   342.36904211831455     
   40.905386008813821     
   66.719819490470613     
   152.24625377963366     
   110.22375106414117     
   53.593712088659451     
   104.50191153141482     
   45.391013450146325     
   46.975137648903925     
   41.824661040798418     
   57.693710637443012     
   50.827472037334559     
   123.35991507562871     
   275.62449571281195     
   165.45671316629907     
   109.15812055935766     
   46.041265397280213     
   33.127142903802842     
   56.572445911097667     
   105.10807698315756     
   68.786302845534024     
   52.246224181442734     
   65.050451183455053     
   36.752572330776125     
   89.644510424390560     
   39.168168399256871     
   39.747914428627951     
   33.851515455398221     
   37.411328086782092     
   36.069800720343139     
   141.95838428311228     
   40.064765365109196     
   144.53287610814962     
   30.606094393067597     
   35.414117537481111     
   89.351601661395449     
   32.761653454254223     
   25.056350872171581     
   30.804073153104536     
   90.548456912886948     
   81.433678267013661     
   94.691546450972908     
   30.047789597362506     
   26.455268673829977     
   177.35155106812644     
   25.438138268692946     
   208.57214143342750     
   28.681592212797103     
   28.040272304185390     
   22.366006145961560     
   25.505176482989729     
   26.834256550799942     
   199.45847542035423     
   25.127260840344107     
   26.294927510843010     
   25.154991126628474     
   25.377917828025488     
   22.570043564516752     
   24.904798425239310     
   23.032413666728299     
   24.208566245536726     
   23.834596911529772     
   23.276786462237840     
   21.046169814712229     
   22.398676938932919     
   22.970236699709854     
   22.520975490142312     
   22.282095800166839     
   21.159066225232404     
   21.365912323006658     
   21.941398281780515     
   21.755892948915243     
   21.485825535532673     
   20.448860084074685     
   21.064414460773111     
   21.337202860338486     
   21.124013045545304     
   21.010591728817943     
   20.494988728250291     
   20.594398697873206     
   20.853124489464378     
   20.765476715086113     
   20.643645652714348     
   20.181371154395901     
   20.450598964541030     
   20.574554672949528     
   20.479984777470111     
   20.427967536575551     
   20.204605644462944     
   20.243962263350504     
   20.358039560009789     