# vtk DataFile Version 2.0
 temperature
 ASCII
 DATASET UNSTRUCTURED_GRID
 POINTS         773  double
   0.0000000000000000        0.0000000000000000        0.0000000000000000     
   3.5000000000000000        0.0000000000000000        0.0000000000000000     
   3.5000000000000000        40.000000000000000        0.0000000000000000     
   0.0000000000000000        40.000000000000000        0.0000000000000000     
  0.43750000000000000        0.0000000000000000        0.0000000000000000     
  0.87500000000000000        0.0000000000000000        0.0000000000000000     
   1.3125000000000000        0.0000000000000000        0.0000000000000000     
   1.7500000000000000        0.0000000000000000        0.0000000000000000     
   2.1875000000000000        0.0000000000000000        0.0000000000000000     
   2.6250000000000000        0.0000000000000000        0.0000000000000000     
   3.0625000000000000        0.0000000000000000        0.0000000000000000     
   3.5000000000000000       0.50000000000000000        0.0000000000000000     
   3.5000000000000000        1.0000000000000000        0.0000000000000000     
   3.5000000000000000        1.5000000000000000        0.0000000000000000     
   3.5000000000000000        2.0000000000000000        0.0000000000000000     
   3.5000000000000000        2.5000000000000000        0.0000000000000000     
   3.5000000000000000        3.0000000000000000        0.0000000000000000     
   3.5000000000000000        3.5000000000000000        0.0000000000000000     
   3.5000000000000000        4.0000000000000000        0.0000000000000000     
   3.5000000000000000        4.5000000000000000        0.0000000000000000     
   3.5000000000000000        5.0000000000000000        0.0000000000000000     
   3.5000000000000000        5.5000000000000000        0.0000000000000000     
   3.5000000000000000        6.0000000000000000        0.0000000000000000     
   3.5000000000000000        6.5000000000000000        0.0000000000000000     
   3.5000000000000000        7.0000000000000000        0.0000000000000000     
   3.5000000000000000        7.5000000000000000        0.0000000000000000     
   3.5000000000000000        8.0000000000000000        0.0000000000000000     
   3.5000000000000000        8.5000000000000000        0.0000000000000000     
   3.5000000000000000        9.0000000000000000        0.0000000000000000     
   3.5000000000000000        9.5000000000000000        0.0000000000000000     
   3.5000000000000000        10.000000000000000        0.0000000000000000     
   3.5000000000000000        10.500000000000000        0.0000000000000000     
   3.5000000000000000        11.000000000000000        0.0000000000000000     
   3.5000000000000000        11.500000000000000        0.0000000000000000     
   3.5000000000000000        12.000000000000000        0.0000000000000000     
   3.5000000000000000        12.500000000000000        0.0000000000000000     
   3.5000000000000000        13.000000000000000        0.0000000000000000     
   3.5000000000000000        13.500000000000000        0.0000000000000000     
   3.5000000000000000        14.000000000000000        0.0000000000000000     
   3.5000000000000000        14.500000000000000        0.0000000000000000     
   3.5000000000000000        15.000000000000000        0.0000000000000000     
   3.5000000000000000        15.500000000000000        0.0000000000000000     
   3.5000000000000000        16.000000000000000        0.0000000000000000     
   3.5000000000000000        16.500000000000000        0.0000000000000000     
   3.5000000000000000        17.000000000000000        0.0000000000000000     
   3.5000000000000000        17.500000000000000        0.0000000000000000     
   3.5000000000000000        18.000000000000000        0.0000000000000000     
   3.5000000000000000        18.500000000000000        0.0000000000000000     
   3.5000000000000000        19.000000000000000        0.0000000000000000     
   3.5000000000000000        19.500000000000000        0.0000000000000000     
   3.5000000000000000        20.000000000000000        0.0000000000000000     
   3.5000000000000000        20.500000000000000        0.0000000000000000     
   3.5000000000000000        21.000000000000000        0.0000000000000000     
   3.5000000000000000        21.500000000000000        0.0000000000000000     
   3.5000000000000000        22.000000000000000        0.0000000000000000     
   3.5000000000000000        22.500000000000000        0.0000000000000000     
   3.5000000000000000        23.000000000000000        0.0000000000000000     
   3.5000000000000000        23.500000000000000        0.0000000000000000     
   3.5000000000000000        24.000000000000000        0.0000000000000000     
   3.5000000000000000        24.500000000000000        0.0000000000000000     
   3.5000000000000000        25.000000000000000        0.0000000000000000     
   3.5000000000000000        25.500000000000000        0.0000000000000000     
   3.5000000000000000        26.000000000000000        0.0000000000000000     
   3.5000000000000000        26.500000000000000        0.0000000000000000     
   3.5000000000000000        27.000000000000000        0.0000000000000000     
   3.5000000000000000        27.500000000000000        0.0000000000000000     
   3.5000000000000000        28.000000000000000        0.0000000000000000     
   3.5000000000000000        28.500000000000000        0.0000000000000000     
   3.5000000000000000        29.000000000000000        0.0000000000000000     
   3.5000000000000000        29.500000000000000        0.0000000000000000     
   3.5000000000000000        30.000000000000000        0.0000000000000000     
   3.5000000000000000        30.500000000000000        0.0000000000000000     
   3.5000000000000000        31.000000000000000        0.0000000000000000     
   3.5000000000000000        31.500000000000000        0.0000000000000000     
   3.5000000000000000        32.000000000000000        0.0000000000000000     
   3.5000000000000000        32.500000000000000        0.0000000000000000     
   3.5000000000000000        33.000000000000000        0.0000000000000000     
   3.5000000000000000        33.500000000000000        0.0000000000000000     
   3.5000000000000000        34.000000000000000        0.0000000000000000     
   3.5000000000000000        34.500000000000000        0.0000000000000000     
   3.5000000000000000        35.000000000000000        0.0000000000000000     
   3.5000000000000000        35.500000000000000        0.0000000000000000     
   3.5000000000000000        36.000000000000000        0.0000000000000000     
   3.5000000000000000        36.500000000000000        0.0000000000000000     
   3.5000000000000000        37.000000000000000        0.0000000000000000     
   3.5000000000000000        37.500000000000000        0.0000000000000000     
   3.5000000000000000        38.000000000000000        0.0000000000000000     
   3.5000000000000000        38.500000000000000        0.0000000000000000     
   3.5000000000000000        39.000000000000000        0.0000000000000000     
   3.5000000000000000        39.500000000000000        0.0000000000000000     
   3.0625000000000000        40.000000000000000        0.0000000000000000     
   2.6250000000000000        40.000000000000000        0.0000000000000000     
   2.1875000000000000        40.000000000000000        0.0000000000000000     
   1.7500000000000000        40.000000000000000        0.0000000000000000     
   1.3125000000000000        40.000000000000000        0.0000000000000000     
  0.87500000000000000        40.000000000000000        0.0000000000000000     
  0.43750000000000000        40.000000000000000        0.0000000000000000     
   0.0000000000000000        39.500000000000000        0.0000000000000000     
   0.0000000000000000        39.000000000000000        0.0000000000000000     
   0.0000000000000000        38.500000000000000        0.0000000000000000     
   0.0000000000000000        38.000000000000000        0.0000000000000000     
   0.0000000000000000        37.500000000000000        0.0000000000000000     
   0.0000000000000000        37.000000000000000        0.0000000000000000     
   0.0000000000000000        36.500000000000000        0.0000000000000000     
   0.0000000000000000        36.000000000000000        0.0000000000000000     
   0.0000000000000000        35.500000000000000        0.0000000000000000     
   0.0000000000000000        35.000000000000000        0.0000000000000000     
   0.0000000000000000        34.500000000000000        0.0000000000000000     
   0.0000000000000000        34.000000000000000        0.0000000000000000     
   0.0000000000000000        33.500000000000000        0.0000000000000000     
   0.0000000000000000        33.000000000000000        0.0000000000000000     
   0.0000000000000000        32.500000000000000        0.0000000000000000     
   0.0000000000000000        32.000000000000000        0.0000000000000000     
   0.0000000000000000        31.500000000000000        0.0000000000000000     
   0.0000000000000000        31.000000000000000        0.0000000000000000     
   0.0000000000000000        30.500000000000000        0.0000000000000000     
   0.0000000000000000        30.000000000000000        0.0000000000000000     
   0.0000000000000000        29.500000000000000        0.0000000000000000     
   0.0000000000000000        29.000000000000000        0.0000000000000000     
   0.0000000000000000        28.500000000000000        0.0000000000000000     
   0.0000000000000000        28.000000000000000        0.0000000000000000     
   0.0000000000000000        27.500000000000000        0.0000000000000000     
   0.0000000000000000        27.000000000000000        0.0000000000000000     
   0.0000000000000000        26.500000000000000        0.0000000000000000     
   0.0000000000000000        26.000000000000000        0.0000000000000000     
[...]
 CELL_DATA        1368
 SCALARS T double
 LOOKUP_TABLE default
   21.002390694761470     
   25.751810233059171     
   1677.1680905811234     
   45.724787720918897     
   20.000001754911985     
   21.936046359964262     
   1280.1738014724294     
   21.794418487220543     
   20.140793039289182     
   21.502827812491944     
   20.216882132387425     
   39.634090641039251     
   21.444399290888498     
   48.100920951773531     
   40.950228748377249     
   1213.1316624526394     
   1678.3384788918383     
   20.438759244103359     
   20.400113466792142     
   22.944102822699328     
   20.333082558682701     
   20.024757949313788     
   1737.7843764131626     
   20.040073473072283     
   20.859212060330911     
   25.653154350651054     
   20.309830891551645     
   22.251837607558116     
   21.145108442895971     
   20.163193049181572     
   22.884827171220767     
   20.000003063683749     
   25.045577893585161     
   26.133040354258622     
   25.982982842198773     
   20.000002609159395     
   20.682522324185079     
   20.085020507659930     
   20.251882834257287     
   20.076669174247076     
   20.057054625689080     
   21.403123069993661     
   20.062608482979243     
   46.944564965186501     
   20.516780200875605     
   444.07779425823520     
   436.22537539868046     
   21.227336538531723     
   21.568015234145314     
   698.96374682576254     
   703.85001961061766     
   20.182143649766157     
   20.675390525377562     
   20.000002453072874     
   1709.2632627042226     
   20.000002146464620     
   20.000005631177469     
   20.023334386231134     
   20.013334672882785     
   20.029515429884341     
   20.000007150427958     
   45.238075887956974     
   20.046585837924958     
   20.000013525881474     
   22.555525625044442     
   23.173859208534189     
   20.135069910762933     
   23.033056706552845     
   20.259841894579584     
   20.339874552473013     
   20.000004709522781     
   1677.6865880422158     
   20.000008617559160     
   20.306336321369102     
   20.100697023190627     
   20.136717811217107     
   20.000019417399685     
   20.000045625310296     
   20.000003883470082     
   420.16772179594705     
   20.033108469245128     
   20.012169119545511     
   259.08830601064199     
   20.007402383439864     
   162.62465489410485     
   20.583533805479572     
   20.747544073759624     
   416.22662101434429     
   20.019473594746742     
   862.70488045376658     
   20.046925132823940     
   20.063527715358529     
   67.856629800039983     
   20.000147338319110     
   806.52035771008104     
   20.003304282024615     
   46.718497203694618     
   20.000064404744275     
   20.003856743092786     
   20.000024604331752     
   257.33267083740282     
   20.000016288069663     
   220.57361766830212     
   224.03419070035258     
   20.056740959523754     
   20.016415850369341     
   20.000003776426695     
   20.129367842080253     
   20.000003192979818     
   20.000029045682261     
   29.252204268555314     
   529.32201410555467     
   28.383982252663309     
   20.001915743847754     
   20.000010995565844     
   20.000001759406491     
   140.27723753796309     
   24.298770016488728     
   142.23873443618277     
   20.000900301477873     
   20.000016413562836     
   20.001718747914740     
   20.012291320945707     
   161.55623394588000     
   22.134650213469953     
   317.73574749003598     
   20.114369424043765     
   20.148693149711796     
   20.009134378581031     
   20.731397150176786     
   20.000004742573065     
   20.002350930770529     
   540.02811111650703     
   21.017396467351450     
   20.000054482116521     
   20.000205793704087     
   20.465048714425684     
   91.380225181342141     
   1321.9565245677006     
   92.683338367941971     
   1009.8493961668156     
   485.99693890771829     
   198.85474780437528     
   20.002691751005781     
   20.006571104038759     
   20.000683395623064     
   508.91609021895943     
   20.004712384096386     
   20.000037352482515     
   20.000054986571666     
   20.000880639296458     
   321.87884875738069     
   20.006412202088729     
   61.418582333603425     
   62.058095099285588     
   20.000080905816610     
   20.000592383387289     
   125.42252793910603     
   20.009659391856513     
   20.000174015836588     
   20.000095162165387     
   20.000010734200732     
   41.276371117254094     
   67.424380227250936     
   20.022519179107960     
   22.439355982805900     
   20.000176117439899     
   20.000001628011134     
   250.04544596323871     
   201.36001693354032     
   20.001379576326524     
   20.000396899440755     
   20.000120881851483     
   46.489930375653636     
   54.533963876105034     
   20.000463025337538     
   1014.8090327416511     
   20.568532502925478     
   126.61357080142473     
   20.000256416389476     
   168.68523442488606     
   160.12367365694877     
   38.993667621086864     
   20.000298059197771     
   35.832814764955209     
   20.000855806964335     
   20.010081673443413     
   20.013932763140510     
   61.161340336075156     
   20.000003643690139     
   265.55707668689809     
   20.112027748402475     
   26.921917170767102     
   26.916047312174136     
   30.839210358812664     
   20.000001919876699     
   583.97169940321305     
   20.000942031479074     
   20.000003235544707     
   20.000373333732615     
   28.207750994213679     
   20.000539954148639     
   108.64603569190726     
   20.005267341936065     
   20.007301548988917     
   20.001819976508269     
   103.30747972441534     
   24.407635454670242     
   20.000431299569737     
   20.000003813056079     
   20.000623646552697     
   20.000006623880800     
   25.616335852511298     
   20.000001681971280     
   20.002105458875480     
   20.000274196706357     
   20.003605498938530     
   20.005321753970868     
   20.146748418766016     
   20.000773562542555     
   24.206231252873216     
   20.000004370359303     
   20.008832037434839     
   58.877978207971807     
   20.003767707445981     
   55.083649996869688     
   20.004175411580867     
   20.000188910602020     
   20.000002535564636     
   20.000222602752299     
   20.001170998282568     
   20.000005522647118     
   22.087907848818794     
   20.000036452778108     
   22.826033885744501     
   20.000153426035318     
   20.009769506169626     
   20.000002808389471     
   20.994719778157052     
   20.011235226353620     
   34.054163881882701     
   39.256471309004425     
   332.35613083261586     
   21.083779515973788     
   55.696044990832320     
   71.838263839771756     
   1435.8148171861046     
   68.618710593173134     
   20.454206461882229     
   20.000129460955534     
   20.000059913883867     
   20.025425471426232     
   20.001276455275736     
   21.370147210531048     
   1517.7101825188849     
   20.000048076966216     
   20.000104941836032     
   20.000321193708128     
   20.029016152919041     
   20.001478009501970     
   20.000005870639509     
   744.94582635746656     
   575.05404063069784     
   20.063414201788191     
   20.014056911695040     
   20.003394535827308     
   20.638959641236099     
   20.000006364467481     
   20.071881419915588     
   1461.1875115000187     
   31.129732257086701     
   20.231473410946453     
   20.001034191656796     
   20.001202258617880     
   20.000842232412232     
   20.000006279125319     
   20.151793134642379     
   20.000005705929894     
   1384.5048231283442     
   1189.4390786260665     
   20.000001292648943     
   1254.4947821049964     
   20.000006693854960     
   20.170898164310699     
   1368.9734796208006     
   20.012596708865008     
   32.189051225274419     
   870.28475687799869     
   1391.9096020087654     
   20.000019516911777     
   25.791613693016135     
   20.000002593347631     
   20.000088525914528     
   20.000946658854961     
   20.001357544040303     
   20.000040433081296     
   20.000003539948192     
   20.000021549987000     
   20.000002914713193     
   923.58667599125590     
   22.916991778256548     
   20.000071065870397     
   662.06885818350099     
   20.000002555732895     
   20.000032197918017     
   21.415711475057599     
   20.660546964920290     
   20.000001681379526     
   20.000002360123954     
   1179.2013519748136     
   20.000004406993803     
   1291.1938867961142     
   1072.9884061344521     
   20.001213595497180     
   20.000975958049416     
   1480.9431282974392     
   31.605427898426321     
   336.55070911796452     
   20.042071574059097     
   20.000003448707997     
   20.000001928803584     
   20.000007205567190     
   782.87443161531030     
   20.000477587547660     
   20.000004817218947     
   20.000118679992386     
   20.000416219899293     
   20.007041050945567     
   1320.8227011224767     
   764.95623612407974     
   20.000002917470610     
   20.000005922518557     
   51.884842120121846     
   1202.9210379403553     
   20.000459884126112     
   20.000009522631551     
   1214.6107104478815     
   1292.0048261577060     
   20.008053057558953     
   20.002571234047622     
   1010.0095313665919     
   20.000005040911834     
   20.000019875941749     
   20.000012135374089     
   20.000013236907172     
   915.08415798326018     
   20.002961977805143     
   20.000018168221771     
   20.000022704983259     
   31.386408355129504     
   28.353738540805278     
   20.000010040229402     
   20.000003870622873     
   20.010211509777257     
   20.000008955126784     
   1143.5122352063661     
   20.000015023808967     
   1041.2111357314084     
   20.000008668780008     
   862.92481200805707     
   20.000003789067055     
   977.77712097324763     
   781.32575913592541     
   1034.5745854951210     
   1209.7084123309487     
   1039.1324117702075     
   20.000008325682991     
   20.000004173683369     
   20.000006691308279     
   874.51563917552983     
   842.94402576556092     
   765.46029628053941     
   737.75453248849783     
   1121.6114768917691     
   666.23765130436436     
   20.000413815056053     
   20.000008825801313     
   20.000029201745356     
   20.000027301245606     
   1233.7753773910495     
   892.25454250073335     
   895.39378888574618     
   969.18754843298780     
   632.36499122714599     
   724.10241390101896     
   20.000030614701409     
   20.000024686461987     
   20.000073859961709     
   566.04068013913911     
   834.78978988276162     
   563.79073554612057     
   20.000033775502377     
   20.000105943877781     
   20.000138485126683     
   631.99387119603523     
   474.01153434631442     
   768.39608505229478     
   20.000064599201089     
   615.97208538426537     
   654.07053182022185     
   20.000029518845640     
   20.000094757179919     
   663.82681079520114     
   20.000201265839276     
   20.000094359097808     
   540.84169764112312     
   20.000154635849601     
   20.000100270681472     
   20.000081533074272     
   20.000230278346837     
   567.52063519467322     
   460.98241149300617     
   484.01615774567000     
   20.000033430769935     
   392.32644892002799     
   413.54134168389493     
   20.000455902619411     
   20.000547856278459     
   20.000043977118121     
   20.000530137014021     
   717.24836716933919     
   20.001111552905869     
   20.001305534657330     
   20.001588640544785     
   20.000618017759503     
   301.87241649799790     
   20.000944265162609     
   20.000785022356848     
   407.39135521283015     
   20.001606953834607     
   20.001124656050312     
   20.000049220647675     
   20.001954858159618     
   20.001697603866916     
   20.001331251692427     
   20.003170888846405     
   20.001348738152796     
   20.006217353898236     
   20.007223614299335     
   20.016743886904404     
   20.012091087451175     
   20.010329318488896     
   20.014263038717491     
   20.022648351430256     
   20.056828557526622     
   20.026828765059147     
   20.022872139863885     
   20.042617901084331     
   20.031296972666848     
   20.136858889228673     
   20.066830704658219     
   20.057378287900672     
   20.104065335735626     
   20.077436237792913     
   20.072910756540224     
   20.036531308004228     
   20.097152368337003     
   20.078110020556572     
   20.058994946922322     
   20.054381464320397     
   20.315552976288547     
   20.159795400161677     
   20.138150743659914     
   20.243988478368788     
   20.183922489036181     
   20.089763011684571     
   395.71969313431833     
   20.701109427193220     
   20.367167568521658     
   20.319110582245557     
   20.547570071017539     
   20.418062237859317     
   20.211761828741189     
   20.498413954568193     
   20.397521367943092     
   20.286966956764871     
   20.375307953772790     
   21.497600538230387     
   20.809779079749372     
   20.708707914703410     
   21.184527928470896     
   20.918183683347181     
   20.480037331461389     
   20.308815855533886     
   23.081364271157796     
   21.717966422039837     
   21.513395666017626     
   22.466096844903472     
   21.936002852656266     
   21.044743750262867     
   22.116100730196845     
   21.735196333403135     
   21.296322219384969     
   21.653322675725480     
   26.113998280457267     
   23.511281168017071     
   23.112753824176846     
   24.953386285105726     
   23.927671884876695     
   22.188701933601465     
   245.48814935388833     
   281.27673209057127     
   256.04183586475335     
   21.377690037529394     
   27.683521245525665     
   138.83187754972005     
   297.73010306424914     
   151.60899187468272     
   137.55905034156720     
   154.60063830677873     
   31.717953828530106     
   277.35977951859809     
   246.74662570267432     
   297.76268167709208     
   26.923385151733164     
   26.174413444867405     
   77.970656420393240     
   240.71416102087863     
   130.53110561028572     
   73.345877730390029     
   155.16924236686975     
   24.419752074977364     
   118.28175297238199     
   241.93490214895206     
   28.632538033036635     
   29.608106286928034     
   331.22301328932997     
   207.29692875818432     
   186.56164507152124     
   132.47233330745533     
   45.250678512033765     
   111.73718167693977     
   37.828687459540859     
   36.301392605926786     
   85.936560013764932     
   46.555797312046245     
   337.02573590961583     
   33.180582516266171     
   31.827450198756708     
   254.70214771018669     
   37.621767362945128     
   244.77975647395917     
   88.590572315122358     
   161.48858832665050     
   44.947107788932108     
   179.71068558761039     
   179.39481142381760     
   176.54469236661009     
   238.42753885036268     
   34.498898042943040     
   160.43296521252324     
   103.17039747915726     
   102.40163212107235     
   302.25302437403587     
   98.547389265765062     
   335.43312057965926     
   66.399448703485447     
   74.577812712546503     
   85.443241421715086     
   218.29257222403604     
   349.09692724774459     
   50.729955630754148     
   189.80369587237280     
   273.84619973150052     
   20.002624832514233     
   78.086943504661122     
   83.701624555200397     
   319.62910886987618     
   20.006409209067737     
   20.003333822527079     
   67.211718072136136     
   36.227209310408135     
   89.964604407244209     
   139.80761596311552     
   444.01367476581572     
   322.10984118694449     
   236.47697126295859     
   268.58688717516276     
   149.17845688682090     
   97.390689793041602     
   65.557900971276823     
   46.289116425838124     
   34.819758251194152     
   28.058234891897456     
   24.285249124526274     
   22.189466558461966     
   21.085829651642673     
   20.516818269797774     
   20.236868866568777     
   20.102956146168363     
   20.044286952817377     
   20.017830257711605     
   20.007011116869823     
   20.005078161823150     
   20.003650694127423     
   20.004631132853088     
   20.001868668697949     
   20.002385699862955     
   20.000664011239586     
   20.000224240684933     
   20.000072439548351     
   20.000022500045592     
   20.003213428712233     
   20.000020477633939     
   20.000068080923665     
   20.000216394860807     
   20.000660038158212     
   20.001921893856657     
   20.003822506451201     
   20.005339891502597     
   20.004513217559460     
   20.007445943165308     
   20.006310955869285     
   20.019668318736972     
   20.049666795551193     
   20.120362108856387     
   20.280164597794460     
   20.626294342057502     
   21.345590600900227     
   22.783839879763949     
   25.553015212870282     
   30.697512364453605     
   39.948927467324381     
   56.134978864389794     
   83.824928417750399     
   96.730509418185420     
   89.551695159054759     
   112.17899792610611     
   130.10915240762333     
   206.19699592767606     
   329.37118884443458     
   526.32632673116461     
   96.726261947014365     
   209.83577488397569     
   221.02940092699291     
   154.42901438096220     
   20.002278997038925     
   111.97282719107102     
   286.38315518022557     
   64.687892583641556     
   120.17114009129071     
   49.813681783193708     
   20.002708355670187     
   56.375697351624495     
   103.68354441628267     
   258.85258484388515     
   67.990381556024360     
   353.18033385746213     
   46.398737998667144     
   74.492046183351505     
   162.71134204182425     
   119.12968695831401     
   60.225437785642214     
   114.08239479371628     
   51.037463148989254     
   52.979944578127487     
   47.242700805549262     
   65.183545129943639     
   57.320281147998756     
   132.84237938534488     
   285.95002020059985     
   174.51659832228910     
   119.90327050280709     
   52.173257282715909     
   37.157263550657028     
   63.845357619526247     
   114.10216712252063     
   76.924218893553586     
   59.038055446174148     
   73.015751996499034     
   41.643234185800480     
   98.654778104142224     
   44.474950181499821     
   45.213562041019884     
   38.115156030989965     
   42.233157839690321     
   40.755165053685225     
   150.90543965637650     
   45.332716947055459     
   153.03028671579492     
   34.397824976065145     
   40.135566137783023     
   97.223531096070332     
   36.887637095144129     
   27.345549278255053     
   34.506613472511049     
   99.088046905524948     
   89.378919116255148     
   103.13493767793929     
   33.636829842055178     
   29.123418393743790     
   187.20205638999170     
   27.803490234012926     
   218.56998801083341     
   31.946239488837225     
   31.199618047483302     
   23.771875575563676     
   27.779395972408764     
   29.666154782023721     
   209.77914603570781     
   27.341921733803776     
   29.019715677250062     
   27.603495904977876     
   27.821733641341137     
   24.037042300705910     
   27.235290551681704     
   24.686924132722865     
   26.303965177282059     
   25.829199941100864     
   25.060620919340906     
   21.850940236721584     
   23.889951520110252     
   24.662110347595171     
   24.023388921401310     
   23.701080953683238     
   22.014279001005701     
   22.334080528116282     
   23.202969118585070     
   22.945538760194989     
   22.537295339076316     
   20.891347949176446     
   21.919393725832229     
   22.325030866326880     
   21.991283646470244     
   21.822525532187289     
   20.965050868181908     
   21.135946319879370     
   21.568024352351657     
   21.433298554092232     
   21.228925457825483     
   20.408670911858387     
   20.913594473344141     
   21.119158524847645     
   20.954186098324861     
   20.867754999154265     
   20.450821509313023     
   20.527055374289173     
   20.741261050058576     