# vtk DataFile Version 2.0
 temperature
 ASCII
 DATASET UNSTRUCTURED_GRID
 POINTS         773  double
   0.0000000000000000        0.0000000000000000        0.0000000000000000     
   3.5000000000000000        0.0000000000000000        0.0000000000000000     
   3.5000000000000000        40.000000000000000        0.0000000000000000     
   0.0000000000000000        40.000000000000000        0.0000000000000000     
  0.43750000000000000        0.0000000000000000        0.0000000000000000     
  0.87500000000000000        0.0000000000000000        0.0000000000000000     
   1.3125000000000000        0.0000000000000000        0.0000000000000000     
   1.7500000000000000        0.0000000000000000        0.0000000000000000     
   2.1875000000000000        0.0000000000000000        0.0000000000000000     
   2.6250000000000000        0.0000000000000000        0.0000000000000000     
   3.0625000000000000        0.0000000000000000        0.0000000000000000     
   3.5000000000000000       0.50000000000000000        0.0000000000000000     
   3.5000000000000000        1.0000000000000000        0.0000000000000000     
   3.5000000000000000        1.5000000000000000        0.0000000000000000     
   3.5000000000000000        2.0000000000000000        0.0000000000000000     
   3.5000000000000000        2.5000000000000000        0.0000000000000000     
   3.5000000000000000        3.0000000000000000        0.0000000000000000     
   3.5000000000000000        3.5000000000000000        0.0000000000000000     
   3.5000000000000000        4.0000000000000000        0.0000000000000000     
   3.5000000000000000        4.5000000000000000        0.0000000000000000     
   3.5000000000000000        5.0000000000000000        0.0000000000000000     
   3.5000000000000000        5.5000000000000000        0.0000000000000000     
   3.5000000000000000        6.0000000000000000        0.0000000000000000     
   3.5000000000000000        6.5000000000000000        0.0000000000000000     
   3.5000000000000000        7.0000000000000000        0.0000000000000000     
   3.5000000000000000        7.5000000000000000        0.0000000000000000     
   3.5000000000000000        8.0000000000000000        0.0000000000000000     
   3.5000000000000000        8.5000000000000000        0.0000000000000000     
   3.5000000000000000        9.0000000000000000        0.0000000000000000     
   3.5000000000000000        9.5000000000000000        0.0000000000000000     
   3.5000000000000000        10.000000000000000        0.0000000000000000     
   3.5000000000000000        10.500000000000000        0.0000000000000000     
   3.5000000000000000        11.000000000000000        0.0000000000000000     
   3.5000000000000000        11.500000000000000        0.0000000000000000     
   3.5000000000000000        12.000000000000000        0.0000000000000000     
   3.5000000000000000        12.500000000000000        0.0000000000000000     
   3.5000000000000000        13.000000000000000        0.0000000000000000     
   3.5000000000000000        13.500000000000000        0.0000000000000000     
   3.5000000000000000        14.000000000000000        0.0000000000000000     
   3.5000000000000000        14.500000000000000        0.0000000000000000     
   3.5000000000000000        15.000000000000000        0.0000000000000000     
   3.5000000000000000        15.500000000000000        0.0000000000000000     
   3.5000000000000000        16.000000000000000        0.0000000000000000     
   3.5000000000000000        16.500000000000000        0.0000000000000000     
   3.5000000000000000        17.000000000000000        0.0000000000000000     
   3.5000000000000000        17.500000000000000        0.0000000000000000     
   3.5000000000000000        18.000000000000000        0.0000000000000000     
   3.5000000000000000        18.500000000000000        0.0000000000000000     
   3.5000000000000000        19.000000000000000        0.0000000000000000     
   3.5000000000000000        19.500000000000000        0.0000000000000000     
   3.5000000000000000        20.000000000000000        0.0000000000000000     
   3.5000000000000000        20.500000000000000        0.0000000000000000     
   3.5000000000000000        21.000000000000000        0.0000000000000000     
   3.5000000000000000        21.500000000000000        0.0000000000000000     
   3.5000000000000000        22.000000000000000        0.0000000000000000     
   3.5000000000000000        22.500000000000000        0.0000000000000000     
   3.5000000000000000        23.000000000000000        0.0000000000000000     
   3.5000000000000000        23.500000000000000        0.0000000000000000     
   3.5000000000000000        24.000000000000000        0.0000000000000000     
   3.5000000000000000        24.500000000000000        0.0000000000000000     
   3.5000000000000000        25.000000000000000        0.0000000000000000     
   3.5000000000000000        25.500000000000000        0.0000000000000000     
   3.5000000000000000        26.000000000000000        0.0000000000000000     
   3.5000000000000000        26.500000000000000        0.0000000000000000     
   3.5000000000000000        27.000000000000000        0.0000000000000000     
   3.5000000000000000        27.500000000000000        0.0000000000000000     
   3.5000000000000000        28.000000000000000        0.0000000000000000     
   3.5000000000000000        28.500000000000000        0.0000000000000000     
   3.5000000000000000        29.000000000000000        0.0000000000000000     
   3.5000000000000000        29.500000000000000        0.0000000000000000     
   3.5000000000000000        30.000000000000000        0.0000000000000000     
   3.5000000000000000        30.500000000000000        0.0000000000000000     
   3.5000000000000000        31.000000000000000        0.0000000000000000     
   3.5000000000000000        31.500000000000000        0.0000000000000000     
   3.5000000000000000        32.000000000000000        0.0000000000000000     
   3.5000000000000000        32.500000000000000        0.0000000000000000     
   3.5000000000000000        33.000000000000000        0.0000000000000000     
   3.5000000000000000        33.500000000000000        0.0000000000000000     
   3.5000000000000000        34.000000000000000        0.0000000000000000     
   3.5000000000000000        34.500000000000000        0.0000000000000000     
   3.5000000000000000        35.000000000000000        0.0000000000000000     
   3.5000000000000000        35.500000000000000        0.0000000000000000     
   3.5000000000000000        36.000000000000000        0.0000000000000000     
   3.5000000000000000        36.500000000000000        0.0000000000000000     
   3.5000000000000000        37.000000000000000        0.0000000000000000     
   3.5000000000000000        37.500000000000000        0.0000000000000000     
   3.5000000000000000        38.000000000000000        0.0000000000000000     
   3.5000000000000000        38.500000000000000        0.0000000000000000     
   3.5000000000000000        39.000000000000000        0.0000000000000000     
   3.5000000000000000        39.500000000000000        0.0000000000000000     
   3.0625000000000000        40.000000000000000        0.0000000000000000     
   2.6250000000000000        40.000000000000000        0.0000000000000000     
   2.1875000000000000        40.000000000000000        0.0000000000000000     
   1.7500000000000000        40.000000000000000        0.0000000000000000     
   1.3125000000000000        40.000000000000000        0.0000000000000000     
  0.87500000000000000        40.000000000000000        0.0000000000000000     
  0.43750000000000000        40.000000000000000        0.0000000000000000     
   0.0000000000000000        39.500000000000000        0.0000000000000000     
   0.0000000000000000        39.000000000000000        0.0000000000000000     
   0.0000000000000000        38.500000000000000        0.0000000000000000     
   0.0000000000000000        38.000000000000000        0.0000000000000000     
   0.0000000000000000        37.500000000000000        0.0000000000000000     
   0.0000000000000000        37.000000000000000        0.0000000000000000     
   0.0000000000000000        36.500000000000000        0.0000000000000000     
   0.0000000000000000        36.000000000000000        0.0000000000000000     
   0.0000000000000000        35.500000000000000        0.0000000000000000     
   0.0000000000000000        35.000000000000000        0.0000000000000000     
   0.0000000000000000        34.500000000000000        0.0000000000000000     
   0.0000000000000000        34.000000000000000        0.0000000000000000     
   0.0000000000000000        33.500000000000000        0.0000000000000000     
   0.0000000000000000        33.000000000000000        0.0000000000000000     
   0.0000000000000000        32.500000000000000        0.0000000000000000     
   0.0000000000000000        32.000000000000000        0.0000000000000000     
   0.0000000000000000        31.500000000000000        0.0000000000000000     
   0.0000000000000000        31.000000000000000        0.0000000000000000     
   0.0000000000000000        30.500000000000000        0.0000000000000000     
   0.0000000000000000        30.000000000000000        0.0000000000000000     
   0.0000000000000000        29.500000000000000        0.0000000000000000     
   0.0000000000000000        29.000000000000000        0.0000000000000000     
   0.0000000000000000        28.500000000000000        0.0000000000000000     
   0.0000000000000000        28.000000000000000        0.0000000000000000     
   0.0000000000000000        27.500000000000000        0.0000000000000000     
   0.0000000000000000        27.000000000000000        0.0000000000000000     
   0.0000000000000000        26.500000000000000        0.0000000000000000     
   0.0000000000000000        26.000000000000000        0.0000000000000000     
[...]
 CELL_DATA        1368
 SCALARS T double
 LOOKUP_TABLE default
   20.077600793659833     
   21.016836352361064     
   1665.2231707358576     
   31.391404201885255     
   20.000000000008491     
   20.204957273057257     
   1269.6952712765587     
   20.176001334014110     
   20.003233352746861     
   20.137115203724115     
   20.006398948859644     
   27.049416226172458     
   20.113248974425648     
   32.388403064383112     
   27.805433233104498     
   1202.4180272731028     
   1666.1064318774941     
   20.018542898706205     
   20.015382612119694     
   20.354050081773060     
   20.011786543107696     
   20.000177509408232     
   1728.3786646001356     
   20.000382850875891     
   20.063148485645470     
   21.073465483032003     
   20.009168437160110     
   20.253640981742105     
   20.088716208437411     
   20.003993708303533     
   20.374913738084047     
   20.000000000021657     
   20.842953037027719     
   21.141837587096614     
   21.187770315028786     
   20.000000000016431     
   20.033543847586333     
   20.001225452417042     
   20.007464359617718     
   20.000993599050666     
   20.000546206672144     
   20.118392064923896     
   20.000736471053173     
   31.073227219526149     
   20.023509490393717     
   386.86831378068644     
   379.88983305835870     
   20.089055229405609     
   20.132450509208205     
   676.48289602676368     
   679.08952097703877     
   20.005016064165257     
   20.036335899612812     
   20.000000000015106     
   1701.3294746742029     
   20.000000000012122     
   20.000000000063419     
   20.000134660247664     
   20.000062748661666     
   20.000229257354945     
   20.000000000095383     
   30.442861803001513     
   20.000446986694453     
   20.000000000283379     
   20.288644529906346     
   20.406286977293703     
   20.002315222172133     
   20.411129171045584     
   20.007032208233014     
   20.010964187959754     
   20.000000000046072     
   1668.3312142056948     
   20.000000000132832     
   20.009907624726068     
   20.001576112295037     
   20.002611566248806     
   20.000000000540577     
   20.000000002302411     
   20.000000000032379     
   361.60046822582655     
   20.000291574794172     
   20.000051261260818     
   202.96994090952111     
   20.000019994400116     
   114.62654501919158     
   20.026584646220520     
   20.039785243169160     
   358.03691482014943     
   20.000102607539606     
   842.88337546629145     
   20.000404725277296     
   20.000673922315499     
   41.214626623856113     
   20.000000017283011     
   787.07031775484052     
   20.000004418179952     
   29.100057156307496     
   20.000000004256286     
   20.000006610054786     
   20.000000000805485     
   201.63429430416096     
   20.000000000396167     
   186.10033475823417     
   187.64159951761792     
   20.000598662891797     
   20.000085235354351     
   20.000000000031559     
   20.002727752833923     
   20.000000000023039     
   20.000000001080561     
   22.333875729476606     
   477.49582597783717     
   21.584133598194509     
   20.000001793671196     
   20.000000000198817     
   20.000000000008701     
   108.52469302446848     
   20.555711013092157     
   109.06047747813972     
   20.000000393135625     
   20.000000000397186     
   20.000001607833415     
   20.000040977605465     
   113.92671509362620     
   20.181747003360154     
   261.30553062921746     
   20.001797872154388     
   20.002782033286657     
   20.000027479026166     
   20.042166952851087     
   20.000000000046136     
   20.000002470097510     
   486.93649005187712     
   20.054646641635095     
   20.000000003167134     
   20.000000031342317     
   20.015109939373044     
   65.077356557251548     
   1309.8124913495346     
   65.271438418903884     
   995.22052765137892     
   456.29556609439464     
   147.98392778644248     
   20.000003212791622     
   20.000015740968415     
   20.000000344019771     
   478.50792915274917     
   20.000008966377550     
   20.000000001637581     
   20.000000003185338     
   20.000000385870749     
   264.59127705220720     
   20.000013615068418     
   41.587132084861487     
   41.603077123086265     
   20.000000006247497     
   20.000000298561726     
   84.098954844203874     
   20.000036558997621     
   20.000000023319487     
   20.000000008324267     
   20.000000000193030     
   29.093141879540088     
   41.018958561085697     
   20.000145871263491     
   20.297847896958743     
   20.000000023558822     
   20.000000000007809     
   215.32678906389097     
   149.70972881732763     
   20.000001149777024     
   20.000000117814320     
   20.000000012342348     
   29.023128577897140     
   33.469479487049092     
   20.000000206820967     
   998.64480748946130     
   20.028495526616727     
   84.734897669424029     
   20.000000045318753     
   134.05481259567233     
   127.02226178277245     
   25.572753757213739     
   20.000000059152644     
   25.065315938743336     
   20.000000485781587     
   20.000030189225953     
   20.000052173505239     
   39.290487945944314     
   20.000000000030376     
   229.23476866739122     
   20.001955323278185     
   21.570925275541377     
   21.549622516349153     
   22.442281878740278     
   20.000000000013699     
   555.57179578228136     
   20.000000698078420     
   20.000000000027395     
   20.000000086334236     
   21.550759216961140     
   20.000000162567375     
   78.975952556877417     
   20.000010028784253     
   20.000017464854221     
   20.000001337391069     
   75.116758451356858     
   20.724052814254172     
   20.000000111498608     
   20.000000000037403     
   20.000000209741060     
   20.000000000087145     
   20.881345202502089     
   20.000000000011973     
   20.000001735615964     
   20.000000062610141     
   20.000004295804640     
   20.000011456189551     
   20.002999365754615     
   20.000000301105988     
   20.543666416021569     
   20.000000000042306     
   20.000029845542752     
   37.812474537832031     
   20.000005681465794     
   33.674663168246425     
   20.000005584913833     
   20.000000033040937     
   20.000000000021490     
   20.000000045137085     
   20.000000750109159     
   20.000000000062766     
   20.177546814347394     
   20.000000001588429     
   20.297485430958087     
   20.000000023816433     
   20.000023448946973     
   20.000000000023835     
   20.053344413347357     
   20.000030089161047     
   24.260315060001581     
   25.638422957171301     
   289.71350615870523     
   20.077848642298637     
   36.933490898794034     
   48.791867478189666     
   1421.6151907223632     
   46.824380429627084     
   20.014750244348992     
   20.000000017275987     
   20.000000004588536     
   20.000118645716512     
   20.000000727824968     
   20.092835473689654     
   1501.2618656583356     
   20.000000003242445     
   20.000000012419950     
   20.000000084588830     
   20.000150082294638     
   20.000000948390685     
   20.000000000107008     
   708.97076057872061     
   549.28537417628161     
   20.000554002230253     
   20.000058984394663     
   20.000005133716982     
   20.026753348331852     
   20.000000000084000     
   20.000691766072457     
   1445.8048314647990     
   22.502921501200603     
   20.006217890262150     
   20.000000515154241     
   20.000001002319330     
   20.000000544580949     
   20.000000000097288     
   20.002391355882335     
   20.000000000088679     
   1360.0595892925214     
   1183.2338637962732     
   20.000000000007944     
   1232.7353931594864     
   20.000000000121879     
   20.002947220190737     
   1349.8216565633261     
   20.000047305056871     
   23.859139131863362     
   844.80619805208175     
   1371.7950224382139     
   20.000000000739018     
   20.908220852705547     
   20.000000000016062     
   20.000000008996540     
   20.000000537642102     
   20.000000996110668     
   20.000000002338780     
   20.000000000034738     
   20.000000000815952     
   20.000000000028720     
   895.78155189087727     
   20.306729015099531     
   20.000000006363674     
   625.46540049564032     
   20.000000000025217     
   20.000000001632230     
   20.095819963624404     
   20.027625244840475     
   20.000000000009116     
   20.000000000016939     
   1153.6817252640760     
   20.000000000069125     
   1274.3183220932876     
   1045.1905926440354     
   20.000000885475561     
   20.000000634582090     
   1460.2579609750451     
   23.576296709515631     
   295.28086249975098     
   20.000361505870007     
   20.000000000029338     
   20.000000000016286     
   20.000000000095692     
   750.52957317760888     
   20.000000186498927     
   20.000000000054911     
   20.000000012090617     
   20.000000142037713     
   20.000013440659124     
   1297.3065924815655     
   750.94288786958407     
   20.000000000033761     
   20.000000000067871     
   34.377928204857824     
   1171.0829988495200     
   20.000000156423038     
   20.000000000200124     
   1194.1719185986371     
   1263.6282899318048     
   20.000017093686495     
   20.000002412728058     
   978.53536494240348     
   20.000000000057010     
   20.000000000876593     
   20.000000000294310     
   20.000000000435506     
   881.77604499785241     
   20.000003109200815     
   20.000000000589452     
   20.000000001001084     
   22.925530140455482     
   22.070209458517255     
   20.000000000286732     
   20.000000000051923     
   20.000034488085433     
   20.000000000139153     
   1113.3617764129399     
   20.000000000574040     
   1008.4349603567046     
   20.000000000182599     
   826.14423535212245     
   20.000000000043521     
   941.25431912301065     
   743.18435118815273     
   1008.4750023572213     
   1183.1374813597954     
   1000.5970413031288     
   20.000000000128104     
   20.000000000047919     
   20.000000000142322     
   843.25747186557021     
   801.27003509943609     
   722.27683181086422     
   696.44745324884809     
   1086.2457313962698     
   624.11943647855526     
   20.000000161504630     
   20.000000000216271     
   20.000000001479741     
   20.000000001188180     
   1218.1666471571032     
   847.80054422467617     
   856.90346908053675     
   927.59371891060186     
   592.72208908744835     
   678.22280263728192     
   20.000000001160892     
   20.000000000802853     
   20.000000007623633     
   510.16400053482505     
   787.86788365068708     
   508.53259609951857     
   20.000000001986713     
   20.000000016543140     
   20.000000024713234     
   587.12788816907505     
   431.74995440666015     
   719.17831931093508     
   20.000000006668294     
   561.30095758222922     
   607.19967988164581     
   20.000000001734740     
   20.000000011217221     
   610.90951763464329     
   20.000000046910738     
   20.000000012785911     
   493.14971290080979     
   20.000000031628741     
   20.000000008932798     
   20.000000006273446     
   20.000000053661616     
   522.31158270086075     
   411.06791717847244     
   436.59916543908116     
   20.000000002275186     
   341.28647210039907     
   364.48760563511200     
   20.000000120296473     
   20.000000165227707     
   20.000000003437620     
   20.000000178774791     
   665.95545468838895     
   20.000000559906344     
   20.000000742916441     
   20.000001032182603     
   20.000000238091623     
   266.92924831259853     
   20.000000418870496     
   20.000000306158217     
   354.36347180460615     
   20.000001043194150     
   20.000000566406705     
   20.000000004422851     
   20.000002086914510     
   20.000001809021704     
   20.000001261952804     
   20.000003362610585     
   20.000000771333017     
   20.000010605839069     
   20.000013791599841     
   20.000056602167735     
   20.000032585599762     
   20.000024883816579     
   20.000043030475968     
   20.000095224263436     
   20.000450057224008     
   20.000125486695794     
   20.000096032030221     
   20.000274836975652     
   20.000163201745515     
   20.001966679322539     
   20.000585088818788     
   20.000453765738886     
   20.001233330525405     
   20.000751149400067     
   20.001046607451411     
   20.000211456784509     
   20.001696042632048     
   20.001242162846250     
   20.000772542376662     
   20.000639812526085     
   20.007906630454109     
   20.002522213570899     
   20.001982330322686     
   20.005116865374518     
   20.003196320761859     
   20.000960546619371     
   339.84989105921500     
   20.029519826298699     
   20.010059505658209     
   20.007992824282901     
   20.019506153400247     
   20.012496384146701     
   20.004034333478028     
   20.025033970950954     
   20.018272608076895     
   20.010166575110865     
   20.015797709867361     
   20.101869777934184     
   20.037027578805652     
   20.029824546891323     
   20.069072202679134     
   20.045574551352498     
   20.015669127683747     
   20.012037869666248     
   20.325447146136515     
   20.126062376230539     
   20.102885765139121     
   20.226205664414984     
   20.153207918437062     
   20.056170565445779     
   20.258214851575563     
   20.197393346846656     
   20.118255895432480     
   20.174653351492875     
   20.963018074968680     
   20.397313543069885     
   20.328536996726509     
   20.686903977758821     
   20.475734262328167     
   20.186355759682979     
   199.29534925803671     
   227.62899573947166     
   211.26625670573046     
   20.136414633434303     
   21.367569032079750     
   100.82572766409025     
   244.78167844640737     
   107.17039327845038     
   95.635770233790993     
   113.87317784949830     
   22.643029767584842     
   235.81518412262560     
   193.25541402861901     
   252.47497815152545     
   21.160489906441647     
   20.971862011259809     
   50.953914455185817     
   188.65040434637217     
   89.241126306535392     
   48.543752552098113     
   109.49374646256797     
   20.572618277366498     
   79.641445287983842     
   202.59298872009458     
   21.636213099677313     
   21.934753401324706     
   276.70225599808987     
   157.23099899474352     
   138.93908164485799     
   92.385805801265221     
   29.381143844694542     
   79.154514336401860     
   24.974785151987575     
   24.530499949886828     
   56.403204957703984     
   30.284989008394504     
   289.91595102144458     
   23.140047760923327     
   22.665047513324055     
   202.89120324370865     
   25.152467987170713     
   195.21392798745211     
   56.544841252372393     
   121.19997089519843     
   29.689278663424275     
   134.08173606453082     
   136.60114877739167     
   129.12369609371822     
   196.78149304235308     
   23.637696882373994     
   115.43926434870350     
   65.951914553807484     
   66.978901224791372     
   252.52485389821643     
   69.034965520000554     
   284.18935495294647     
   43.939939443257472     
   48.081949029536645     
   54.882438249167834     
   168.22617379149079     
   295.52952905180689     
   31.956232951312181     
   144.22444631574248     
   245.89498175728647     
   20.000004013966056     
   49.887664323837193     
   52.733835595266569     
   289.67203943780106     
   20.000017340807116     
   20.000005708873118     
   41.702605206429254     
   24.308583971227744     
   58.615767394395306     
   99.323588516000854     
   421.01333732842323     
   295.19304290696948     
   207.51709907850827     
   237.66388371513014     
   121.12501168100242     
   72.859602174077963     
   46.148365375619598     
   32.181523921527813     
   25.314533836315842     
   22.147591088600183     
   20.814497811983756     
   20.285383432659955     
   20.092996924937413     
   20.027936354987137     
   20.007788667390077     
   20.001972375711549     
   20.000477980744499     
   20.000104138783168     
   20.000021295672784     
   20.000012316877246     
   20.000007061057964     
   20.000010009789392     
   20.000002256515433     
   20.000003227924516     
   20.000000383036870     
   20.000000059816944     
   20.000000008602129     
   20.000000001151911     
   20.000003410769793     
   20.000000000580318     
   20.000000004589520     
   20.000000033466680     
   20.000000226945755     
   20.000001413448715     
   20.000004577343770     
   20.000008097446969     
   20.000006092117122     
   20.000014265450680     
   20.000010789302522     
   20.000074211119443     
   20.000355064037379     
   20.001570672458023     
   20.006426350553856     
   20.024290928724636     
   20.084845201703615     
   20.274272186360932     
   20.821168486935974     
   22.279960065122669     
   25.881804246136031     
   34.140200077980452     
   51.817135688542351     
   61.088107556278928     
   55.909875327666171     
   72.813475220946785     
   87.124759059683399     
   153.41927302025596     
   270.93841725304316     
   469.25878485530313     
   62.300916599510408     
   161.97966793007075     
   173.58202685402435     
   111.38956157834174     
   20.000001896254044     
   74.112316899240142     
   235.63835038818485     
   40.523884956211816     
   82.649671352059926     
   31.091184060342670     
   20.000002540801216     
   34.809091436400855     
   69.259614683631639     
   209.90644762825352     
   42.919855180597999     
   303.32770753253317     
   29.378071109338407     
   47.048568245347944     
   119.50356754919572     
   83.793629987281719     
   37.855092604055706     
   77.108174121698980     
   32.630595996331174     
   33.410452725207271     
   30.155558613151928     
   39.964293823850241     
   35.816793260719692     
   94.697009158337480     
   239.22723103177344     
   135.69150343683205     
   78.962635401749367     
   32.520149429214882     
   25.285938679810823     
   39.362381124027145     
   78.889369792074206     
   48.208739342579328     
   36.543988249391482     
   45.331271215197894     
   26.994681132093401     
   64.859823784208103     
   28.303510993609670     
   28.556322719215753     
   25.567143907244009     
   27.541753196731257     
   26.715999453696313     
   113.50577970674560     
   29.006475262337911     
   117.10521607115254     
   23.796468139341922     
   26.216769809138551     
   66.850607867502262     
   24.944286242070881     
   21.470986566850975     
   24.001123807627742     
   66.586900068592854     
   59.578761505554489     
   70.530025454330129     
   23.599294060760307     
   22.042181958489788     
   145.01855617507667     
   21.642753151666206     
   174.77203016637318     
   22.980783573722622     
   22.658991635494811     
   20.520117996610736     
   21.742742229490641     
   22.157262699032046     
   165.05056009228926     
   21.558945337139672     
   21.909538687752960     
   21.431842975101308     
   21.559006453485857     
   20.590616537087374     
   21.361976207999319     
   20.731386533862889     
   21.115703883081327     
   20.972199830895768     
   20.792231436938053     
   20.168754177773721     
   20.500942844601266     
   20.683980646960713     
   20.552342073360524     
   20.476567368969430     
   20.197140188578928     
   20.244205340539686     
   20.385238107933475     
   20.331573531820240     
   20.266167585430590     
   20.051593410188509     
   20.162311748996459     
   20.227075365158260     
   20.180618661182962     
   20.154073680059263     
   20.060047659477629     
   20.076427797401809     
   20.123004887237489     
   20.104495782707531     
   20.082988789124744     
   20.014439686962142     
   20.048738496842155     
   20.069864334878396     
   20.054999205657047     
   20.046289123735580     
   20.017380298298885     
   20.021941617310411     
   20.036445612206574     