# vtk DataFile Version 2.0
 temperature
 ASCII
 DATASET UNSTRUCTURED_GRID
 POINTS         773  double
   0.0000000000000000        0.0000000000000000        0.0000000000000000     
   3.5000000000000000        0.0000000000000000        0.0000000000000000     
   3.5000000000000000        40.000000000000000        0.0000000000000000     
   0.0000000000000000        40.000000000000000        0.0000000000000000     
  0.43750000000000000        0.0000000000000000        0.0000000000000000     
  0.87500000000000000        0.0000000000000000        0.0000000000000000     
   1.3125000000000000        0.0000000000000000        0.0000000000000000     
   1.7500000000000000        0.0000000000000000        0.0000000000000000     
   2.1875000000000000        0.0000000000000000        0.0000000000000000     
   2.6250000000000000        0.0000000000000000        0.0000000000000000     
   3.0625000000000000        0.0000000000000000        0.0000000000000000     
   3.5000000000000000       0.50000000000000000        0.0000000000000000     
   3.5000000000000000        1.0000000000000000        0.0000000000000000     
   3.5000000000000000        1.5000000000000000        0.0000000000000000     
   3.5000000000000000        2.0000000000000000        0.0000000000000000     
   3.5000000000000000        2.5000000000000000        0.0000000000000000     
   3.5000000000000000        3.0000000000000000        0.0000000000000000     
   3.5000000000000000        3.5000000000000000        0.0000000000000000     
   3.5000000000000000        4.0000000000000000        0.0000000000000000     
   3.5000000000000000        4.5000000000000000        0.0000000000000000     
   3.5000000000000000        5.0000000000000000        0.0000000000000000     
   3.5000000000000000        5.5000000000000000        0.0000000000000000     
   3.5000000000000000        6.0000000000000000        0.0000000000000000     
   3.5000000000000000        6.5000000000000000        0.0000000000000000     
   3.5000000000000000        7.0000000000000000        0.0000000000000000     
   3.5000000000000000        7.5000000000000000        0.0000000000000000     
   3.5000000000000000        8.0000000000000000        0.0000000000000000     
   3.5000000000000000        8.5000000000000000        0.0000000000000000     
   3.5000000000000000        9.0000000000000000        0.0000000000000000     
   3.5000000000000000        9.5000000000000000        0.0000000000000000     
   3.5000000000000000        10.000000000000000        0.0000000000000000     
   3.5000000000000000        10.500000000000000        0.0000000000000000     
   3.5000000000000000        11.000000000000000        0.0000000000000000     
   3.5000000000000000        11.500000000000000        0.0000000000000000     
   3.5000000000000000        12.000000000000000        0.0000000000000000     
   3.5000000000000000        12.500000000000000        0.0000000000000000     
   3.5000000000000000        13.000000000000000        0.0000000000000000     
   3.5000000000000000        13.500000000000000        0.0000000000000000     
   3.5000000000000000        14.000000000000000        0.0000000000000000     
   3.5000000000000000        14.500000000000000        0.0000000000000000     
   3.5000000000000000        15.000000000000000        0.0000000000000000     
   3.5000000000000000        15.500000000000000        0.0000000000000000     
   3.5000000000000000        16.000000000000000        0.0000000000000000     
   3.5000000000000000        16.500000000000000        0.0000000000000000     
   3.5000000000000000        17.000000000000000        0.0000000000000000     
   3.5000000000000000        17.500000000000000        0.0000000000000000     
   3.5000000000000000        18.000000000000000        0.0000000000000000     
   3.5000000000000000        18.500000000000000        0.0000000000000000     
   3.5000000000000000        19.000000000000000        0.0000000000000000     
   3.5000000000000000        19.500000000000000        0.0000000000000000     
   3.5000000000000000        20.000000000000000        0.0000000000000000     
   3.5000000000000000        20.500000000000000        0.0000000000000000     
   3.5000000000000000        21.000000000000000        0.0000000000000000     
   3.5000000000000000        21.500000000000000        0.0000000000000000     
   3.5000000000000000        22.000000000000000        0.0000000000000000     
   3.5000000000000000        22.500000000000000        0.0000000000000000     
   3.5000000000000000        23.000000000000000        0.0000000000000000     
   3.5000000000000000        23.500000000000000        0.0000000000000000     
   3.5000000000000000        24.000000000000000        0.0000000000000000     
   3.5000000000000000        24.500000000000000        0.0000000000000000     
   3.5000000000000000        25.000000000000000        0.0000000000000000     
   3.5000000000000000        25.500000000000000        0.0000000000000000     
   3.5000000000000000        26.000000000000000        0.0000000000000000     
   3.5000000000000000        26.500000000000000        0.0000000000000000     
   3.5000000000000000        27.000000000000000        0.0000000000000000     
   3.5000000000000000        27.500000000000000        0.0000000000000000     
   3.5000000000000000        28.000000000000000        0.0000000000000000     
   3.5000000000000000        28.500000000000000        0.0000000000000000     
   3.5000000000000000        29.000000000000000        0.0000000000000000     
   3.5000000000000000        29.500000000000000        0.0000000000000000     
   3.5000000000000000        30.000000000000000        0.0000000000000000     
   3.5000000000000000        30.500000000000000        0.0000000000000000     
   3.5000000000000000        31.000000000000000        0.0000000000000000     
   3.5000000000000000        31.500000000000000        0.0000000000000000     
   3.5000000000000000        32.000000000000000        0.0000000000000000     
   3.5000000000000000        32.500000000000000        0.0000000000000000     
   3.5000000000000000        33.000000000000000        0.0000000000000000     
   3.5000000000000000        33.500000000000000        0.0000000000000000     
   3.5000000000000000        34.000000000000000        0.0000000000000000     
   3.5000000000000000        34.500000000000000        0.0000000000000000     
   3.5000000000000000        35.000000000000000        0.0000000000000000     
   3.5000000000000000        35.500000000000000        0.0000000000000000     
   3.5000000000000000        36.000000000000000        0.0000000000000000     
   3.5000000000000000        36.500000000000000        0.0000000000000000     
   3.5000000000000000        37.000000000000000        0.0000000000000000     
   3.5000000000000000        37.500000000000000        0.0000000000000000     
   3.5000000000000000        38.000000000000000        0.0000000000000000     
   3.5000000000000000        38.500000000000000        0.0000000000000000     
   3.5000000000000000        39.000000000000000        0.0000000000000000     
   3.5000000000000000        39.500000000000000        0.0000000000000000     
   3.0625000000000000        40.000000000000000        0.0000000000000000     
   2.6250000000000000        40.000000000000000        0.0000000000000000     
   2.1875000000000000        40.000000000000000        0.0000000000000000     
   1.7500000000000000        40.000000000000000        0.0000000000000000     
   1.3125000000000000        40.000000000000000        0.0000000000000000     
  0.87500000000000000        40.000000000000000        0.0000000000000000     
  0.43750000000000000        40.000000000000000        0.0000000000000000     
   0.0000000000000000        39.500000000000000        0.0000000000000000     
   0.0000000000000000        39.000000000000000        0.0000000000000000     
   0.0000000000000000        38.500000000000000        0.0000000000000000     
   0.0000000000000000        38.000000000000000        0.0000000000000000     
   0.0000000000000000        37.500000000000000        0.0000000000000000     
   0.0000000000000000        37.000000000000000        0.0000000000000000     
   0.0000000000000000        36.500000000000000        0.0000000000000000     
   0.0000000000000000        36.000000000000000        0.0000000000000000     
   0.0000000000000000        35.500000000000000        0.0000000000000000     
   0.0000000000000000        35.000000000000000        0.0000000000000000     
   0.0000000000000000        34.500000000000000        0.0000000000000000     
   0.0000000000000000        34.000000000000000        0.0000000000000000     
   0.0000000000000000        33.500000000000000        0.0000000000000000     
   0.0000000000000000        33.000000000000000        0.0000000000000000     
   0.0000000000000000        32.500000000000000        0.0000000000000000     
   0.0000000000000000        32.000000000000000        0.0000000000000000     
   0.0000000000000000        31.500000000000000        0.0000000000000000     
   0.0000000000000000        31.000000000000000        0.0000000000000000     
   0.0000000000000000        30.500000000000000        0.0000000000000000     
   0.0000000000000000        30.000000000000000        0.0000000000000000     
   0.0000000000000000        29.500000000000000        0.0000000000000000     
   0.0000000000000000        29.000000000000000        0.0000000000000000     
   0.0000000000000000        28.500000000000000        0.0000000000000000     
   0.0000000000000000        28.000000000000000        0.0000000000000000     
   0.0000000000000000        27.500000000000000        0.0000000000000000     
   0.0000000000000000        27.000000000000000        0.0000000000000000     
   0.0000000000000000        26.500000000000000        0.0000000000000000     
   0.0000000000000000        26.000000000000000        0.0000000000000000     
[...]
 CELL_DATA        1368
 SCALARS T double
 LOOKUP_TABLE default
   20.020016947827738     
   20.395845180682269     
   1657.2755272244817     
   27.126555232194537     
   20.000000000000000     
   20.061741885906041     
   1262.7400148708005     
   20.051046213408874     
   20.000460616032576     
   20.038373199418913     
   20.001029676901382     
   23.947360231998921     
   20.029397495658248     
   27.731952047809653     
   24.456475743138292     
   1195.3130559924962     
   1657.9684668905988     
   20.003554139001498     
   20.002815325650616     
   20.113619497804738     
   20.002071862931768     
   20.000014436300777     
   1722.1136676899987     
   20.000035738564424     
   20.015873069600101     
   20.433397920859424     
   20.001477155869548     
   20.078803623120912     
   20.022895484830691     
   20.000587002387444     
   20.125091172050094     
   20.000000000000000     
   20.318930637632324     
   20.456420601760264     
   20.490671742285809     
   20.000000000000000     
   20.006921490681137     
   20.000139409164611     
   20.001203731120636     
   20.000107392531408     
   20.000051034685491     
   20.031873221871155     
   20.000075988039622     
   26.659554476823129     
   20.004671435575432     
   354.38648465488876     
   347.92645427906677     
   20.022251195427053     
   20.035674422457966     
   661.99579889923677     
   663.18811231914106     
   20.000780626509023     
   20.007838973025358     
   20.000000000000000     
   1696.0434360595448     
   20.000000000000000     
   20.000000000000107     
   20.000009871090427     
   20.000004173401578     
   20.000019382459822     
   20.000000000000242     
   26.303107941925877     
   20.000041811940715     
   20.000000000001467     
   20.089793670532455     
   20.134543191044433     
   20.000286314383207     
   20.140155298066652     
   20.001085033927083     
   20.001842419778715     
   20.000000000000011     
   1662.1023401771133     
   20.000000000000544     
   20.001666847236489     
   20.000186605727162     
   20.000340336489174     
   20.000000000003265     
   20.000000000017909     
   20.000000000000000     
   328.82632887999370     
   20.000026174669383     
   20.000003233427325     
   174.98972012435033     
   20.000001020934739     
   93.847834592127711     
   20.005286256884549     
   20.008537822738653     
   325.49606322600573     
   20.000007201747461     
   829.95543973156464     
   20.000035974792443     
   20.000066151432570     
   33.278273048899671     
   20.000000000200668     
   774.40489895124824     
   20.000000161609769     
   24.956780321378265     
   20.000000000037758     
   20.000000271923550     
   20.000000000005176     
   173.86293470666189     
   20.000000000002235     
   167.47129713102495     
   168.13241837329340     
   20.000058610153072     
   20.000005942243874     
   20.000000000000000     
   20.000372999696427     
   20.000000000000000     
   20.000000000007333     
   21.088849390157396     
   446.80725340222551     
   20.637727776593835     
   20.000000055432174     
   20.000000000000959     
   20.000000000000000     
   93.322905581146784     
   20.184841915365691     
   93.330577208823399     
   20.000000008468035     
   20.000000000002164     
   20.000000049664521     
   20.000002312693947     
   93.305971272848296     
   20.049116148869015     
   231.45016833524076     
   20.000213281855981     
   20.000359038556383     
   20.000001476798996     
   20.009415875648646     
   20.000000000000000     
   20.000000080619095     
   455.50687412125740     
   20.011770789081609     
   20.000000000026379     
   20.000000000411649     
   20.002546415722790     
   54.223778618377708     
   1301.7586844455907     
   54.103411965005705     
   985.58226138039061     
   437.87671472093911     
   124.27625897117294     
   20.000000111385404     
   20.000000759100914     
   20.000000007932464     
   459.61337068917555     
   20.000000387673033     
   20.000000000011916     
   20.000000000026482     
   20.000000008327323     
   234.29029155049489     
   20.000000620080968     
   34.745178529954373     
   34.638141266818550     
   20.000000000059639     
   20.000000006887234     
   67.637925709288098     
   20.000002192123631     
   20.000000000288338     
   20.000000000084288     
   20.000000000000867     
   25.582965279822552     
   33.154537089452084     
   20.000011304368446     
   20.096331580007792     
   20.000000000291031     
   20.000000000000000     
   196.05424821917305     
   125.65065812045265     
   20.000000033633317     
   20.000000002118522     
   20.000000000134317     
   24.915151409408228     
   27.877447117158958     
   20.000000004507719     
   988.01171306117146     
   20.005936433249236     
   68.074069588068085     
   20.000000000637844     
   116.76843838098530     
   110.57118926441238     
   22.809305893256447     
   20.000000000879698     
   22.671271561802605     
   20.000000011853690     
   20.000001619077420     
   20.000003112432164     
   32.441032908744333     
   20.000000000000000     
   208.99504434780098     
   20.000244013435410     
   20.694495337731226     
   20.680579883759432     
   21.075307265281452     
   20.000000000000000     
   537.66111209076382     
   20.000000019320126     
   20.000000000000096     
   20.000000001378577     
   20.624303835166284     
   20.000000002938577     
   66.105706389561860     
   20.000000433755979     
   20.000000841860555     
   20.000000036835186     
   62.952721597289319     
   20.271610300430311     
   20.000000001877424     
   20.000000000000192     
   20.000000003996142     
   20.000000000000270     
   20.323117014349883     
   20.000000000000000     
   20.000000050481347     
   20.000000000995485     
   20.000000148692266     
   20.000000525268749     
   20.000404105771356     
   20.000000006142255     
   20.180826010415409     
   20.000000000000057     
   20.000001695318733     
   31.349290102029265     
   20.000000220036927     
   27.994713057825656     
   20.000000204244131     
   20.000000000463601     
   20.000000000000110     
   20.000000000678742     
   20.000000019381780     
   20.000000000000171     
   20.047952956081549     
   20.000000000011578     
   20.089334732421435     
   20.000000000315893     
   20.000001131411974     
   20.000000000000107     
   20.011481739962932     
   20.000001529668356     
   22.184773278220668     
   22.839462826058863     
   265.59334883799727     
   20.019350146110302     
   30.992745103862678     
   40.358827185797111     
   1412.1981863414528     
   38.897870831008625     
   20.002485329023592     
   20.000000000213536     
   20.000000000043709     
   20.000007856750027     
   20.000000017781804     
   20.022421134923860     
   1490.3559672515453     
   20.000000000029097     
   20.000000000145079     
   20.000000001438043     
   20.000010440726186     
   20.000000024511063     
   20.000000000000561     
   686.22770262017912     
   532.95359455825280     
   20.000049523446346     
   20.000003715038471     
   20.000000199056949     
   20.005103478193046     
   20.000000000000316     
   20.000064782746783     
   1435.6071676163078     
   21.100912668204408     
   20.000955900034647     
   20.000000011815430     
   20.000000029320137     
   20.000000014129704     
   20.000000000000512     
   20.000283856238308     
   20.000000000000519     
   1343.9556546679721     
   1179.1053869147795     
   20.000000000000000     
   1218.4187328184191     
   20.000000000000664     
   20.000365469364013     
   1337.1701880640626     
   20.000002825745533     
   22.024386099821026     
   828.30787238409516     
   1358.5099584777195     
   20.000000000005073     
   20.332846992476927     
   20.000000000000000     
   20.000000000097877     
   20.000000013126080     
   20.000000027438244     
   20.000000000019533     
   20.000000000000203     
   20.000000000005585     
   20.000000000000210     
   877.78667392398324     
   20.092056662510366     
   20.000000000065228     
   602.54970439163083     
   20.000000000000135     
   20.000000000012800     
   20.023128281281906     
   20.005266531314465     
   20.000000000000000     
   20.000000000000000     
   1136.9718236496442     
   20.000000000000455     
   1263.1682668506398     
   1027.0894188177317     
   20.000000024324322     
   20.000000016510935     
   1446.5765643098016     
   21.849840666795011     
   271.76003423532012     
   20.000032071009855     
   20.000000000000025     
   20.000000000000028     
   20.000000000000213     
   729.89901800425218     
   20.000000003815988     
   20.000000000000295     
   20.000000000131482     
   20.000000002727614     
   20.000000581689584     
   1281.8289651996815     
   741.75560228831046     
   20.000000000000242     
   20.000000000000114     
   29.083260624797550     
   1150.3257343910027     
   20.000000002999922     
   20.000000000001162     
   1180.7222827362382     
   1245.0259644464306     
   20.000000778149293     
   20.000000074594137     
   958.16970917874971     
   20.000000000000210     
   20.000000000006498     
   20.000000000001691     
   20.000000000002867     
   860.37487566758773     
   20.000000101385304     
   20.000000000003766     
   20.000000000007375     
   21.377754606157275     
   20.957101607705052     
   20.000000000001815     
   20.000000000000348     
   20.000001958851250     
   20.000000000000544     
   1093.7196125691951     
   20.000000000004004     
   987.22570399355459     
   20.000000000001066     
   802.69598249846820     
   20.000000000000313     
   917.79078815344405     
   719.07463416920928     
   991.47435996113870     
   1165.7385507315653     
   975.80791593517915     
   20.000000000000597     
   20.000000000000306     
   20.000000000000764     
   823.16768950582764     
   774.91963092156493     
   695.23205450409216     
   670.57700460875697     
   1063.3334006898210     
   598.00320663538628     
   20.000000003303125     
   20.000000000001283     
   20.000000000011624     
   20.000000000008672     
   1207.8527951886429     
   819.67892371115852     
   832.36347064153347     
   901.03907292523650     
   568.13824493232778     
   649.75165135525720     
   20.000000000007869     
   20.000000000005045     
   20.000000000083517     
   477.07635813988441     
   758.43493106584731     
   475.78468220374629     
   20.000000000016730     
   20.000000000220076     
   20.000000000349885     
   559.59082455119085     
   406.47857202043218     
   688.63041212240580     
   20.000000000073044     
   528.48353788041697     
   578.44411474691628     
   20.000000000014619     
   20.000000000131017     
   578.75365235175911     
   20.000000000752891     
   20.000000000159098     
   464.55255425068424     
   20.000000000477545     
   20.000000000091170     
   20.000000000059739     
   20.000000000861384     
   494.89605804997120     
   381.95315876505697     
   408.55682206750259     
   20.000000000020517     
   312.41256757311868     
   336.29828634530452     
   20.000000002044025     
   20.000000002989655     
   20.000000000033058     
   20.000000003413611     
   634.43566326858070     
   20.000000012897164     
   20.000000018130379     
   20.000000026814853     
   20.000000004841358     
   246.85440626342941     
   20.000000009087341     
   20.000000006252566     
   324.35012677777564     
   20.000000027087449     
   20.000000013047398     
   20.000000000045411     
   20.000000068618593     
   20.000000059429862     
   20.000000039234479     
   20.000000110117004     
   20.000000018864881     
   20.000000435078867     
   20.000000596954422     
   20.000003213582449     
   20.000001661012323     
   20.000001202570470     
   20.000002314227434     
   20.000005998619226     
   20.000038375806806     
   20.000008317067621     
   20.000006045874454     
   20.000021239316741     
   20.000011393978436     
   20.000223293450944     
   20.000052345451003     
   20.000038668149688     
   20.000127625284822     
   20.000070595428859     
   20.000118840121889     
   20.000015518197557     
   20.000211714309458     
   20.000148255380090     
   20.000083937494406     
   20.000066016134539     
   20.001174431629501     
   20.000299614948371     
   20.000224925206883     
   20.000697298443924     
   20.000397756231081     
   20.000094636561144     
   308.69279972589607     
   20.005644649952924     
   20.001560287702791     
   20.001187119628355     
   20.003437782058636     
   20.002022147919057     
   20.000524842877851     
   20.005220846681329     
   20.003650430632355     
   20.001788148852626     
   20.003022290449323     
   20.024643154027139     
   20.007371025549723     
   20.005701859982217     
   20.015490983098353     
   20.009444211249050     
   20.002646467044418     
   20.002218628656603     
   20.097870084773419     
   20.031654584810042     
   20.024883620795496     
   20.063427927892590     
   20.039932099629990     
   20.012105279734303     
   20.083491165764318     
   20.061644696754193     
   20.033094169540664     
   20.052562370786880     
   20.353658290646504     
   20.123645018085892     
   20.098770912415695     
   20.236629590963688     
   20.153162621710052     
   20.050362021382714     
   175.35918545425341     
   199.82893077915480     
   187.60350603438516     
   20.039762883834111     
   20.534110169684499     
   83.981191075889441     
   216.81862418099971     
   87.967478096455878     
   78.017818266850028     
   95.374850879951012     
   21.164119907825530     
   213.05112599503585     
   166.63237848965994     
   227.70705236977372     
   20.439720795214186     
   20.356798852523873     
   41.420415018731077     
   162.74060020734709     
   72.323926688019526     
   39.774714654771529     
   89.763010658678496     
   20.190662295541980     
   64.279962116183214     
   181.47154021255326     
   20.659679395571249     
   20.804332882369806     
   247.32154386296381     
   133.34707274616829     
   116.79596437971311     
   75.536177871710109     
   25.348009733284972     
   65.435288577617001     
   22.443573306896251     
   22.220921499270606     
   45.654915899230424     
   25.993373886270938     
   263.66478104336312     
   21.422070236900172     
   21.173207625307924     
   176.58603914936000     
   22.593101974983171     
   170.04541176709529     
   45.257854521083935     
   102.44253917795663     
   25.654846104392387     
   112.86136986946967     
   116.22628618991247     
   107.58806547773835     
   174.80397268638521     
   21.691818576652267     
   95.507321535689726     
   52.393341524762221     
   53.695705747639039     
   225.77357587231032     
   56.985520454259898     
   256.12688019750379     
   36.260874992336959     
   39.044349822114292     
   44.114928516077562     
   143.85919402689544     
   266.19988311879479     
   26.983977952089681     
   122.52012186854874     
   229.56066796397536     
   20.000000156471884     
   40.269609489645902     
   42.182937068547268     
   271.93560026957920     
   20.000000886144051     
   20.000000234772926     
   33.850288541029506     
   22.062892792349924     
   47.209789604881877     
   81.839168073294218     
   406.58335956128820     
   279.03703781464651     
   191.08951146075776     
   219.91147017644366     
   106.83079755152005     
   61.946480551639155     
   38.826936534390015     
   27.809257721955927     
   22.974484229530088     
   21.030722849989449     
   20.329087329228592     
   20.095397441806384     
   20.025229913111033     
   20.006043248714143     
   20.001321344234441     
   20.000257586651671     
   20.000047323741306     
   20.000007683745530     
   20.000001150096075     
   20.000000597639417     
   20.000000307812122     
   20.000000459837025     
   20.000000078670126     
   20.000000118723182     
   20.000000009418912     
   20.000000001023295     
   20.000000000100652     
   20.000000000009116     
   20.000000111746324     
   20.000000000003435     
   20.000000000041034     
   20.000000000442434     
   20.000000004367902     
   20.000000038926988     
   20.000000158780427     
   20.000000314169849     
   20.000000223679795     
   20.000000618400531     
   20.000000443125984     
   20.000004439944910     
   20.000028827992285     
   20.000170248271477     
   20.000914593955649     
   20.004462502267167     
   20.019774107234259     
   20.079683169276095     
   20.292159700297361     
   20.975603149637358     
   22.972489789883351     
   28.283609935624369     
   41.208464102286491     
   48.473446524965617     
   44.396379927796310     
   57.979978330070601     
   69.958383866211221     
   128.78582156372190     
   239.99068713660171     
   435.91138128183479     
   49.786761631159976     
   138.68021583748251     
   149.98219624139517     
   92.319518133532142     
   20.000000055365646     
   59.490683726015959     
   208.83928760808158     
   33.091910431883022     
   67.302846236619857     
   26.327228266849289     
   20.000000078514912     
   28.859463354519008     
   55.961597839802586     
   184.54210442784176     
   34.932050372358695     
   275.57893481152399     
   25.222413173933344     
   37.990961038580693     
   99.883043169922033     
   68.944069448062194     
   31.183902187601724     
   62.406229310116920     
   27.555597975159653     
   28.018521049958082     
   25.800254829904695     
   32.474197831025194     
   29.666751275357548     
   78.226706973192123     
   214.08095525290889     
   116.77550557270084     
   63.102364472882350     
   27.314033963187079     
   22.733367485848714     
   32.094826814220951     
   64.478839485523451     
   38.745202482329653     
   30.110587770023322     
   36.504992146262715     
   23.707714429375958     
   52.183381649493924     
   24.514130102515949     
   24.652136318162778     
   22.875149767965205     
   24.100161208204995     
   23.562492173096878     
   96.117713802064330     
   25.017829393369805     
   100.04102310469661     
   21.811496341517014     
   23.217953655058313     
   54.780014575209854     
   22.490192031168046     
   20.610128921824515     
   21.954068428853866     
   54.024034613383563     
   48.400538262683440     
   57.550305317394404     
   21.718353523505836     
   20.896345725393552     
   124.49289274871670     
   20.698988566368012     
   152.54508798763246     
   21.382755450109936     
   21.202498929718494     
   20.178746268164449     
   20.765357330202338     
   20.945443600767547     
   142.79719711953871     
   20.666292306029842     
   20.814596268518535     
   20.575568049609085     
   20.645074092993987     
   20.209108655614838     
   20.547422099594012     
   20.267418503032243     
   20.434661651287858     
   20.367547278803599     
   20.290140309793443     
   20.047199934632950     
   20.166340206691061     
   20.242447506213164     
   20.189396715582063     
   20.158253664493476     
   20.057115260178037     
   20.073133410620507     
   20.123648335519253     
   20.102960036337169     
   20.079813139986403     
   20.011535651544339     
   20.043733237131732     
   20.065711553583512     
   20.050392360384507     
   20.041512230922478     
   20.013913992554365     
   20.018398657737382     
   20.031940640632374     
   20.026168192796352     
   20.020015375736516     
   20.002536313918124     
   20.010468252378299     
   20.016209862313143     
   20.012272222161304     
   20.009943106228189     
   20.003185419872935     
   20.004175032348432     
   20.007522690699915     