# vtk DataFile Version 2.0
 temperature
 ASCII
 DATASET UNSTRUCTURED_GRID
 POINTS         773  double
   0.0000000000000000        0.0000000000000000        0.0000000000000000     
   3.5000000000000000        0.0000000000000000        0.0000000000000000     
   3.5000000000000000        40.000000000000000        0.0000000000000000     
   0.0000000000000000        40.000000000000000        0.0000000000000000     
  0.43750000000000000        0.0000000000000000        0.0000000000000000     
  0.87500000000000000        0.0000000000000000        0.0000000000000000     
   1.3125000000000000        0.0000000000000000        0.0000000000000000     
   1.7500000000000000        0.0000000000000000        0.0000000000000000     
   2.1875000000000000        0.0000000000000000        0.0000000000000000     
   2.6250000000000000        0.0000000000000000        0.0000000000000000     
   3.0625000000000000        0.0000000000000000        0.0000000000000000     
   3.5000000000000000       0.50000000000000000        0.0000000000000000     
   3.5000000000000000        1.0000000000000000        0.0000000000000000     
   3.5000000000000000        1.5000000000000000        0.0000000000000000     
   3.5000000000000000        2.0000000000000000        0.0000000000000000     
   3.5000000000000000        2.5000000000000000        0.0000000000000000     
   3.5000000000000000        3.0000000000000000        0.0000000000000000     
   3.5000000000000000        3.5000000000000000        0.0000000000000000     
   3.5000000000000000        4.0000000000000000        0.0000000000000000     
   3.5000000000000000        4.5000000000000000        0.0000000000000000     
   3.5000000000000000        5.0000000000000000        0.0000000000000000     
   3.5000000000000000        5.5000000000000000        0.0000000000000000     
   3.5000000000000000        6.0000000000000000        0.0000000000000000     
   3.5000000000000000        6.5000000000000000        0.0000000000000000     
   3.5000000000000000        7.0000000000000000        0.0000000000000000     
   3.5000000000000000        7.5000000000000000        0.0000000000000000     
   3.5000000000000000        8.0000000000000000        0.0000000000000000     
   3.5000000000000000        8.5000000000000000        0.0000000000000000     
   3.5000000000000000        9.0000000000000000        0.0000000000000000     
   3.5000000000000000        9.5000000000000000        0.0000000000000000     
   3.5000000000000000        10.000000000000000        0.0000000000000000     
   3.5000000000000000        10.500000000000000        0.0000000000000000     
   3.5000000000000000        11.000000000000000        0.0000000000000000     
   3.5000000000000000        11.500000000000000        0.0000000000000000     
   3.5000000000000000        12.000000000000000        0.0000000000000000     
   3.5000000000000000        12.500000000000000        0.0000000000000000     
   3.5000000000000000        13.000000000000000        0.0000000000000000     
   3.5000000000000000        13.500000000000000        0.0000000000000000     
   3.5000000000000000        14.000000000000000        0.0000000000000000     
   3.5000000000000000        14.500000000000000        0.0000000000000000     
   3.5000000000000000        15.000000000000000        0.0000000000000000     
   3.5000000000000000        15.500000000000000        0.0000000000000000     
   3.5000000000000000        16.000000000000000        0.0000000000000000     
   3.5000000000000000        16.500000000000000        0.0000000000000000     
   3.5000000000000000        17.000000000000000        0.0000000000000000     
   3.5000000000000000        17.500000000000000        0.0000000000000000     
   3.5000000000000000        18.000000000000000        0.0000000000000000     
   3.5000000000000000        18.500000000000000        0.0000000000000000     
   3.5000000000000000        19.000000000000000        0.0000000000000000     
   3.5000000000000000        19.500000000000000        0.0000000000000000     
   3.5000000000000000        20.000000000000000        0.0000000000000000     
   3.5000000000000000        20.500000000000000        0.0000000000000000     
   3.5000000000000000        21.000000000000000        0.0000000000000000     
   3.5000000000000000        21.500000000000000        0.0000000000000000     
   3.5000000000000000        22.000000000000000        0.0000000000000000     
   3.5000000000000000        22.500000000000000        0.0000000000000000     
   3.5000000000000000        23.000000000000000        0.0000000000000000     
   3.5000000000000000        23.500000000000000        0.0000000000000000     
   3.5000000000000000        24.000000000000000        0.0000000000000000     
   3.5000000000000000        24.500000000000000        0.0000000000000000     
   3.5000000000000000        25.000000000000000        0.0000000000000000     
   3.5000000000000000        25.500000000000000        0.0000000000000000     
   3.5000000000000000        26.000000000000000        0.0000000000000000     
   3.5000000000000000        26.500000000000000        0.0000000000000000     
   3.5000000000000000        27.000000000000000        0.0000000000000000     
   3.5000000000000000        27.500000000000000        0.0000000000000000     
   3.5000000000000000        28.000000000000000        0.0000000000000000     
   3.5000000000000000        28.500000000000000        0.0000000000000000     
   3.5000000000000000        29.000000000000000        0.0000000000000000     
   3.5000000000000000        29.500000000000000        0.0000000000000000     
   3.5000000000000000        30.000000000000000        0.0000000000000000     
   3.5000000000000000        30.500000000000000        0.0000000000000000     
   3.5000000000000000        31.000000000000000        0.0000000000000000     
   3.5000000000000000        31.500000000000000        0.0000000000000000     
   3.5000000000000000        32.000000000000000        0.0000000000000000     
   3.5000000000000000        32.500000000000000        0.0000000000000000     
   3.5000000000000000        33.000000000000000        0.0000000000000000     
   3.5000000000000000        33.500000000000000        0.0000000000000000     
   3.5000000000000000        34.000000000000000        0.0000000000000000     
   3.5000000000000000        34.500000000000000        0.0000000000000000     
   3.5000000000000000        35.000000000000000        0.0000000000000000     
   3.5000000000000000        35.500000000000000        0.0000000000000000     
   3.5000000000000000        36.000000000000000        0.0000000000000000     
   3.5000000000000000        36.500000000000000        0.0000000000000000     
   3.5000000000000000        37.000000000000000        0.0000000000000000     
   3.5000000000000000        37.500000000000000        0.0000000000000000     
   3.5000000000000000        38.000000000000000        0.0000000000000000     
   3.5000000000000000        38.500000000000000        0.0000000000000000     
   3.5000000000000000        39.000000000000000        0.0000000000000000     
   3.5000000000000000        39.500000000000000        0.0000000000000000     
   3.0625000000000000        40.000000000000000        0.0000000000000000     
   2.6250000000000000        40.000000000000000        0.0000000000000000     
   2.1875000000000000        40.000000000000000        0.0000000000000000     
   1.7500000000000000        40.000000000000000        0.0000000000000000     
   1.3125000000000000        40.000000000000000        0.0000000000000000     
  0.87500000000000000        40.000000000000000        0.0000000000000000     
  0.43750000000000000        40.000000000000000        0.0000000000000000     
   0.0000000000000000        39.500000000000000        0.0000000000000000     
   0.0000000000000000        39.000000000000000        0.0000000000000000     
   0.0000000000000000        38.500000000000000        0.0000000000000000     
   0.0000000000000000        38.000000000000000        0.0000000000000000     
   0.0000000000000000        37.500000000000000        0.0000000000000000     
   0.0000000000000000        37.000000000000000        0.0000000000000000     
   0.0000000000000000        36.500000000000000        0.0000000000000000     
   0.0000000000000000        36.000000000000000        0.0000000000000000     
   0.0000000000000000        35.500000000000000        0.0000000000000000     
   0.0000000000000000        35.000000000000000        0.0000000000000000     
   0.0000000000000000        34.500000000000000        0.0000000000000000     
   0.0000000000000000        34.000000000000000        0.0000000000000000     
   0.0000000000000000        33.500000000000000        0.0000000000000000     
   0.0000000000000000        33.000000000000000        0.0000000000000000     
   0.0000000000000000        32.500000000000000        0.0000000000000000     
   0.0000000000000000        32.000000000000000        0.0000000000000000     
   0.0000000000000000        31.500000000000000        0.0000000000000000     
   0.0000000000000000        31.000000000000000        0.0000000000000000     
   0.0000000000000000        30.500000000000000        0.0000000000000000     
   0.0000000000000000        30.000000000000000        0.0000000000000000     
   0.0000000000000000        29.500000000000000        0.0000000000000000     
   0.0000000000000000        29.000000000000000        0.0000000000000000     
   0.0000000000000000        28.500000000000000        0.0000000000000000     
   0.0000000000000000        28.000000000000000        0.0000000000000000     
   0.0000000000000000        27.500000000000000        0.0000000000000000     
   0.0000000000000000        27.000000000000000        0.0000000000000000     
   0.0000000000000000        26.500000000000000        0.0000000000000000     
   0.0000000000000000        26.000000000000000        0.0000000000000000     
[...]
 CELL_DATA        1368
 SCALARS T double
 LOOKUP_TABLE default
   20.176637168482472     
   21.792012722531354     
   1669.6089144807645     
   35.005159444353431     
   20.000000000356835     
   20.423557315526217     
   1273.5386099286386     
   20.372404047764164     
   20.010673335029992     
   20.296663895948782     
   20.019569731066362     
   29.933720086890922     
   20.256766111272938     
   36.341885620271185     
   30.869531293113496     
   1206.3460813793051     
   1670.5974272835292     
   20.050818350264993     
   20.043394804313760     
   20.703393140566426     
   20.034102396895143     
   20.000833923373079     
   1731.8337305474895     
   20.001648983061084     
   20.146065481528204     
   21.849843771287254     
   20.028015819033399     
   20.514198379846395     
   20.201883404293902     
   20.012929061433088     
   20.727094556022600     
   20.000000000806875     
   21.512017330149369     
   21.979847414303329     
   22.018278716621168     
   20.000000000634579     
   20.087781071626338     
   20.004659935199058     
   20.022797179611718     
   20.003902059521451     
   20.002351131635010     
   20.262412492045016     
   20.002978279916185     
   34.940818201907149     
   20.062993515057162     
   406.46047145120275     
   399.17669355566568     
   20.206783030971810     
   20.293479028061608     
   684.62347161988964     
   688.04219643577574     
   20.015665684845104     
   20.092483029370328     
   20.000000000587516     
   1704.2441951224441     
   20.000000000484711     
   20.000000002054303     
   20.000675482547123     
   20.000334721208329     
   20.001051155826875     
   20.000000002938751     
   34.059422933145555     
   20.001922710261436     
   20.000000007638530     
   20.584673006116347     
   20.791633557809632     
   20.008353163672062     
   20.786874113782822     
   20.022080195371831     
   20.032631519406142     
   20.000000001556302     
   1671.7671690169479     
   20.000000003920732     
   20.029464526494586     
   20.005845028763680     
   20.009117217286992     
   20.000000013387432     
   20.000000047783427     
   20.000000001147988     
   381.52810295502701     
   20.001287150658040     
   20.000282739175727     
   221.09181820025958     
   20.000126062837872     
   129.14261443303769     
   20.071201368827225     
   20.101597698867948     
   377.83010844359364     
   20.000529013676477     
   850.09855924994463     
   20.001797907155950     
   20.002812128135918     
   47.935448640952529     
   20.000000278942249     
   794.14537570600021     
   20.000034410254930     
   33.041365452655768     
   20.000000081493081     
   20.000047784826755     
   20.000000019014589     
   219.62071854660886     
   20.000000010214350     
   197.64726098454992     
   199.78747434062410     
   20.002502225008524     
   20.000441366019185     
   20.000000001117733     
   20.009240143763854     
   20.000000000853305     
   20.000000024550936     
   23.678560836901180     
   495.57908056159266     
   22.734329479428894     
   20.000015545863693     
   20.000000005598299     
   20.000000000361958     
   118.58873390633245     
   21.079621468110343     
   119.52918176947168     
   20.000004283473999     
   20.000000010256105     
   20.000013939119789     
   20.000242502749852     
   128.33184923998857     
   20.401786241214069     
   280.02709551089765     
   20.006658860465024     
   20.009772886579789     
   20.000167729516932     
   20.105054989779816     
   20.000000001561652     
   20.000020680595302     
   505.45911494706917     
   20.139185367256104     
   20.000000063012088     
   20.000000467820431     
   20.044878743061012     
   72.854135036915892     
   1314.2650500618713     
   73.327449189361005     
   1000.5689413233803     
   466.87191700515723     
   163.90787936886974     
   20.000025888474838     
   20.000102898296703     
   20.000003590883040     
   489.34537663192992     
   20.000062812215347     
   20.000000035435729     
   20.000000063437319     
   20.000004199676223     
   283.59499138827499     
   20.000092286630466     
   46.966277322950013     
   47.115938869010833     
   20.000000114217006     
   20.000003115399107     
   96.113639788700098     
   20.000208232974877     
   20.000000361662870     
   20.000000146608471     
   20.000000005443333     
   32.115485586292543     
   47.679482995345325     
   20.000706553103665     
   20.588918223074131     
   20.000000365576447     
   20.000000000327688     
   227.09721292366839     
   165.87394147782064     
   20.000010318772866     
   20.000001440336490     
   20.000000207598287     
   32.930694819033455     
   38.483583777952283     
   20.000002237433709     
   1004.5505316682252     
   20.074123886713643     
   96.903521912355160     
   20.000000647149527     
   145.24367626826523     
   137.69572653645969     
   28.374322217464663     
   20.000000815798174     
   27.404904345857108     
   20.000004891532100     
   20.000184521770212     
   20.000298131212599     
   44.946796274793833     
   20.000000001075737     
   241.56991520364707     
   20.007015261805115     
   22.559686894065660     
   22.535196962044868     
   23.988962581357949     
   20.000000000510024     
   565.75942364063656     
   20.000006489215167     
   20.000000000966327     
   20.000001137715469     
   22.676734987255625     
   20.000001979837624     
   87.957724855502931     
   20.000070240239136     
   20.000114209584989     
   20.000012466953955     
   83.629532096311934     
   21.305618438730122     
   20.000001420917975     
   20.000000001262457     
   20.000002470799735     
   20.000000002694847     
   21.612031150404341     
   20.000000000445347     
   20.000015630306528     
   20.000000827825637     
   20.000034641556518     
   20.000077327456001     
   20.010256243328289     
   20.000003395815177     
   21.056265795228665     
   20.000000001433055     
   20.000175905142939     
   43.205206448380899     
   20.000042677931528     
   38.769130131625268     
   20.000043497095771     
   20.000000473070308     
   20.000000000758632     
   20.000000618350988     
   20.000007284117359     
   20.000000002026820     
   20.392648702210025     
   20.000000034430794     
   20.615899937752253     
   20.000000353393261     
   20.000153211273123     
   20.000000000840604     
   20.135933481568049     
   20.000190214803187     
   26.335733112670979     
   28.478423643879538     
   304.29241198467213     
   20.181336397472140     
   41.812320782833304     
   55.224685502266148     
   1426.8214201381995     
   52.889857092669914     
   20.043816553685510     
   20.000000268156676     
   20.000000084060524     
   20.000634555217744     
   20.000007320848180     
   20.220160330774657     
   1507.2920010649411     
   20.000000061696866     
   20.000000199825237     
   20.000001071753861     
   20.000778117649421     
   20.000009206395372     
   20.000000003004956     
   721.88947984149354     
   558.54911509685678     
   20.002451794941638     
   20.000325683203634     
   20.000038531748448     
   20.073532300865764     
   20.000000002595371     
   20.002973114778598     
   1451.4438876760787     
   24.090491020084052     
   20.019567930956743     
   20.000005394817187     
   20.000008994860320     
   20.000005273809204     
   20.000000002866706     
   20.008852119521226     
   20.000000002610541     
   1368.9965198323280     
   1185.5121345251484     
   20.000000000310507     
   1240.6860941991770     
   20.000000003423310     
   20.010614152531215     
   1356.8316868856314     
   20.000270082908855     
   25.660212468746721     
   854.05166092292654     
   1379.1568760648161     
   20.000000016700973     
   21.661554289651409     
   20.000000000623405     
   20.000000151462412     
   20.000005412428248     
   20.000009287558566     
   20.000000046579167     
   20.000000001172396     
   20.000000018437280     
   20.000000000968342     
   905.86883167847247     
   20.635257197534429     
   20.000000111266640     
   638.55385399095928     
   20.000000000849766     
   20.000000033813357     
   20.227316431600546     
   20.075956564951362     
   20.000000000370132     
   20.000000000628670     
   1162.9869286885457     
   20.000000002029200     
   1280.4957180829897     
   1055.3021976623068     
   20.000008270137673     
   20.000006134852530     
   1467.8333159754434     
   25.290678459215048     
   309.43806423912457     
   20.001607803767467     
   20.000000001033154     
   20.000000000575493     
   20.000000002952635     
   762.18976256962333     
   20.000002100328775     
   20.000000001772001     
   20.000000203483207     
   20.000001665446415     
   20.000094078698915     
   1305.9004255519305     
   756.05532924098736     
   20.000000001084874     
   20.000000002188070     
   38.827735932905512     
   1182.6703795843466     
   20.000001835810632     
   20.000000005386887     
   1201.6405279252162     
   1273.9804642366905     
   20.000115886138971     
   20.000020901255926     
   989.95282188528756     
   20.000000001844004     
   20.000000018929704     
   20.000000007592131     
   20.000000010261484     
   893.82186228268347     
   20.000026042138884     
   20.000000013945723     
   20.000000021620171     
   24.584469826745050     
   23.281265723429510     
   20.000000007045312     
   20.000000001596810     
   20.000203291074452     
   20.000000004098421     
   1124.3313642551991     
   20.000000012935818     
   1020.3250056273323     
   20.000000004912060     
   839.40066833608569     
   20.000000001401496     
   954.46197104304633     
   756.88030511297256     
   1017.9701482789992     
   1192.8261817217960     
   1014.5404929296760     
   20.000000003782478     
   20.000000001542968     
   20.000000003816975     
   854.56333084021867     
   816.23641253848893     
   737.72058420653980     
   711.22034832084580     
   1099.0818563382143     
   639.11666967902886     
   20.000001819243852     
   20.000000005562097     
   20.000000030660949     
   20.000000025756776     
   1223.8805037349000     
   863.76864710826305     
   870.77656466377459     
   942.59428212821774     
   606.83854136343473     
   694.56505399870684     
   20.000000026228019     
   20.000000018986992     
   20.000000127770392     
   529.66075761978868     
   804.66034336483506     
   527.82044182490995     
   20.000000039373539     
   20.000000245011336     
   20.000000351751250     
   603.03202568605968     
   446.55989905962974     
   736.71097079911999     
   20.000000111759988     
   580.49212933472654     
   623.81146275605170     
   20.000000034390165     
   20.000000180471403     
   629.58551943537418     
   20.000000616487785     
   20.000000197576579     
   509.88299644293880     
   20.000000432162665     
   20.000000156483456     
   20.000000114802308     
   20.000000705198008     
   538.25268863153588     
   428.36825151944470     
   453.13470188288943     
   20.000000043170843     
   358.73742211979686     
   381.37724410694540     
   20.000001523910662     
   20.000002011090817     
   20.000000062596158     
   20.000002103773845     
   684.14752802209898     
   20.000005845509346     
   20.000007477457455     
   20.000009984421858     
   20.000002692187824     
   278.95897349007015     
   20.000004542689712     
   20.000003450535758     
   372.49812092311032     
   20.000010093757030     
   20.000005913468602     
   20.000000077249410     
   20.000017389559485     
   20.000015082099289     
   20.000010896137209     
   20.000028083092513     
   20.000007752210820     
   20.000076791479255     
   20.000096528376730     
   20.000333628138272     
   20.000205624340587     
   20.000162412766521     
   20.000262472715139     
   20.000525578907542     
   20.002051862014344     
   20.000670711710306     
   20.000530246955776     
   20.001333245224142     
   20.000844132650052     
   20.007486290509885     
   20.002587838587313     
   20.002069611562749     
   20.004977092477368     
   20.003220792746276     
   20.003984708990487     
   20.001059802258951     
   20.006084347029859     
   20.004583883060306     
   20.003024170896882     
   20.002587307741994     
   20.025419309096776     
   20.009331514018225     
   20.007549066460861     
   20.017365354821223     
   20.011484953111591     
   20.003998020617246     
   358.83034995019312     
   20.081004999463566     
   20.031473289554796     
   20.025698611377027     
   20.056331897433115     
   20.038072746166282     
   20.014096936897310     
   20.065077078455570     
   20.048801825906828     
   20.029404658981328     
   20.043347243299642     
   20.241313657262438     
   20.099076316517728     
   20.081852281575920     
   20.171545570198450     
   20.118920381978793     
   20.046474469750731     
   20.033813540080367     
   20.673139225791495     
   20.291744822788900     
   20.243757946710378     
   20.488707945573221     
   20.346418380157196     
   20.143021768424539     
   20.510648344245784     
   20.398919467533087     
   20.255868948981096     
   20.361161521468144     
   21.759453294397314     
   20.804451966976725     
   20.679663172716030     
   21.305743261855437     
   20.943126276394956     
   20.411970395506117     
   214.47655499071834     
   245.26064721040495     
   226.11365827829809     
   20.287773518861560     
   22.405105859846799     
   112.44744703524955     
   262.33381654605989     
   120.59853673794530     
   108.13849581256851     
   126.47039482752602     
   24.315622782258842     
   249.81793988914805     
   210.51490975355082     
   267.72625777748465     
   22.079524615478061     
   21.775968008999353     
   58.363235251875629     
   205.44846517935261     
   101.40791908350502     
   55.352225083585928     
   123.29341826821685     
   21.111725694735835     
   90.865231999896622     
   215.73193128583560     
   22.821521147158631     
   23.273695656678132     
   294.94131436708568     
   173.07332705960533     
   153.83039652530636     
   104.34194687427525     
   33.075670616593513     
   88.880685781895124     
   27.595721709177667     
   26.926004800531516     
   64.625045760045580     
   34.145327571906904     
   305.91471982252250     
   25.039810787594970     
   24.352954688073524     
   219.76136572493252     
   27.750984634990743     
   211.35397886465265     
   65.325364467251731     
   133.80564699630636     
   33.313844773868823     
   148.35098417512052     
   150.13016138835795     
   143.79035836368107     
   210.58224036000792     
   25.743913216926824     
   129.19459836701949     
   76.318231870062860     
   76.983820882484565     
   269.14750537690685     
   77.717024800596405     
   301.45676058002493     
   50.005259783971134     
   55.229068737850675     
   63.257425538779238     
   184.21549180681365     
   313.57845033582925     
   36.419692386689569     
   158.63501908991302     
   255.59078767389056     
   20.000030026163135     
   57.493944254964205     
   61.082494369046451     
   300.12394575629554     
   20.000109277396994     
   20.000041279946132     
   48.243803089635271     
   26.682702972227450     
   67.341842767584637     
   111.55360857618655     
   429.24526796290166     
   304.64116882388527     
   217.43069254670905     
   248.30617194281018     
   130.27437875470744     
   80.374038544910661     
   51.646059520596282     
   35.811159092770026     
   27.491574905315634     
   23.326594966675319     
   21.403054640603358     
   20.552895181215423     
   20.205159730425432     
   20.070993500822187     
   20.023044086559015     
   20.006878136228153     
   20.001983922140710     
   20.000520361213319     
   20.000129597862617     
   20.000080207988020     
   20.000049214679635     
   20.000067482214366     
   20.000018118667864     
   20.000025051357550     
   20.000003838183332     
   20.000000754923001     
   20.000000138249963     
   20.000000023790093     
   20.000028477223104     
   20.000000014298131     
   20.000000087366917     
   20.000000497342263     
   20.000002656034887     
   20.000013174489407     
   20.000036858339691     
   20.000060738498423     
   20.000047322030625     
   20.000099744511747     
   20.000078065041773     
   20.000423173469610     
   20.001669616590306     
   20.006156087171203     
   20.021222952087903     
   20.068349963371023     
   20.205719867026158     
   20.579611751693449     
   21.530057630955568     
   23.789689437688256     
   28.825094094641500     
   39.383804109360973     
   60.330375176290971     
   70.877229883986047     
   64.999427632168832     
   83.958147322028950     
   99.637534323924385     
   169.95173012259573     
   290.33370849041989     
   489.05433804335576     
   71.879238350742597     
   177.26554668102821     
   188.88685336334726     
   124.54866250620712     
   20.000017032065127     
   84.958280311149522     
   252.45990978317366     
   46.717580144221607     
   93.696989656859529     
   35.452548151156499     
   20.000022014693336     
   40.043641915281476     
   79.122292968931319     
   225.99293812052045     
   49.459189990529318     
   320.24952705652197     
   33.259879052347358     
   54.332522522298618     
   132.86649782243015     
   94.331844861207415     
   43.501463117132673     
   87.849006640426524     
   37.096814664032287     
   38.157168391801910     
   34.139387189376855     
   46.316723829613785     
   41.131694241387990     
   106.21923366649702     
   254.84859927415022     
   148.09687680336029     
   90.708463075155521     
   37.193106564821065     
   27.820815050803194     
   45.527690476626255     
   89.259756012516377     
   55.824830585701569     
   42.103778437843332     
   52.554878147317979     
   30.192866717790551     
   74.406306271388630     
   31.914370122644254     
   32.276136269091268     
   28.243321244901669     
   30.821561606739166     
   29.782754073171112     
   125.19997678174698     
   32.731077398395989     
   128.45041779302423     
   25.901089487524338     
   29.191996932535407     
   75.671648035005688     
   27.434581663865856     
   22.492967575382512     
   26.131200477154483     
   75.901409875204294     
   67.996780699154527     
   80.006916582665866     
   25.592826806175037     
   23.342181850537912     
   158.48890915438167     
   22.740667508671443     
   189.03004226337791     
   24.714501804926424     
   24.271931846912402     
   20.990319042954479     
   22.851270302687109     
   23.533793731584648     
   179.48011965855505     
   22.593771594733528     
   23.180378982224198     
   22.473924958533303     
   22.646055203816349     
   21.104011055155077     
   22.353445086935853     
   21.340043133808415     
   21.965446719372558     
   21.744732420565065     
   21.450065147641421     
   20.365222578113045     
   20.974324755494710     
   21.277503993549235     
   21.053130051697366     
   20.926921412846024     
   20.417410860687891     
   20.506509520610262     
   20.765297697623669     
   20.672358392545188     
   20.551614102031007     
   20.128407506860917     
   20.359537359384841     
   20.481120822603312     
   20.391514276786975     
   20.341310397100571     
   20.146160399224772     
   20.181631518845624     
   20.278834073194016     
   20.242285228389235     
   20.196997529790572     
   20.041798122026783     
   20.124380133203996     
   20.169899061429120     
   20.137059015942324     
   20.118128107299107     
   20.048987846862612     
   20.060409120681303     
   20.095358930394902     