# vtk DataFile Version 2.0
 temperature
 ASCII
 DATASET UNSTRUCTURED_GRID
 POINTS         773  double
   0.0000000000000000        0.0000000000000000        0.0000000000000000     
   3.5000000000000000        0.0000000000000000        0.0000000000000000     
   3.5000000000000000        40.000000000000000        0.0000000000000000     
   0.0000000000000000        40.000000000000000        0.0000000000000000     
  0.43750000000000000        0.0000000000000000        0.0000000000000000     
  0.87500000000000000        0.0000000000000000        0.0000000000000000     
   1.3125000000000000        0.0000000000000000        0.0000000000000000     
   1.7500000000000000        0.0000000000000000        0.0000000000000000     
   2.1875000000000000        0.0000000000000000        0.0000000000000000     
   2.6250000000000000        0.0000000000000000        0.0000000000000000     
   3.0625000000000000        0.0000000000000000        0.0000000000000000     
   3.5000000000000000       0.50000000000000000        0.0000000000000000     
   3.5000000000000000        1.0000000000000000        0.0000000000000000     
   3.5000000000000000        1.5000000000000000        0.0000000000000000     
   3.5000000000000000        2.0000000000000000        0.0000000000000000     
   3.5000000000000000        2.5000000000000000        0.0000000000000000     
   3.5000000000000000        3.0000000000000000        0.0000000000000000     
   3.5000000000000000        3.5000000000000000        0.0000000000000000     
   3.5000000000000000        4.0000000000000000        0.0000000000000000     
   3.5000000000000000        4.5000000000000000        0.0000000000000000     
   3.5000000000000000        5.0000000000000000        0.0000000000000000     
   3.5000000000000000        5.5000000000000000        0.0000000000000000     
   3.5000000000000000        6.0000000000000000        0.0000000000000000     
   3.5000000000000000        6.5000000000000000        0.0000000000000000     
   3.5000000000000000        7.0000000000000000        0.0000000000000000     
   3.5000000000000000        7.5000000000000000        0.0000000000000000     
   3.5000000000000000        8.0000000000000000        0.0000000000000000     
   3.5000000000000000        8.5000000000000000        0.0000000000000000     
   3.5000000000000000        9.0000000000000000        0.0000000000000000     
   3.5000000000000000        9.5000000000000000        0.0000000000000000     
   3.5000000000000000        10.000000000000000        0.0000000000000000     
   3.5000000000000000        10.500000000000000        0.0000000000000000     
   3.5000000000000000        11.000000000000000        0.0000000000000000     
   3.5000000000000000        11.500000000000000        0.0000000000000000     
   3.5000000000000000        12.000000000000000        0.0000000000000000     
   3.5000000000000000        12.500000000000000        0.0000000000000000     
   3.5000000000000000        13.000000000000000        0.0000000000000000     
   3.5000000000000000        13.500000000000000        0.0000000000000000     
   3.5000000000000000        14.000000000000000        0.0000000000000000     
   3.5000000000000000        14.500000000000000        0.0000000000000000     
   3.5000000000000000        15.000000000000000        0.0000000000000000     
   3.5000000000000000        15.500000000000000        0.0000000000000000     
   3.5000000000000000        16.000000000000000        0.0000000000000000     
   3.5000000000000000        16.500000000000000        0.0000000000000000     
   3.5000000000000000        17.000000000000000        0.0000000000000000     
   3.5000000000000000        17.500000000000000        0.0000000000000000     
   3.5000000000000000        18.000000000000000        0.0000000000000000     
   3.5000000000000000        18.500000000000000        0.0000000000000000     
   3.5000000000000000        19.000000000000000        0.0000000000000000     
   3.5000000000000000        19.500000000000000        0.0000000000000000     
   3.5000000000000000        20.000000000000000        0.0000000000000000     
   3.5000000000000000        20.500000000000000        0.0000000000000000     
   3.5000000000000000        21.000000000000000        0.0000000000000000     
   3.5000000000000000        21.500000000000000        0.0000000000000000     
   3.5000000000000000        22.000000000000000        0.0000000000000000     
   3.5000000000000000        22.500000000000000        0.0000000000000000     
   3.5000000000000000        23.000000000000000        0.0000000000000000     
   3.5000000000000000        23.500000000000000        0.0000000000000000     
   3.5000000000000000        24.000000000000000        0.0000000000000000     
   3.5000000000000000        24.500000000000000        0.0000000000000000     
   3.5000000000000000        25.000000000000000        0.0000000000000000     
   3.5000000000000000        25.500000000000000        0.0000000000000000     
   3.5000000000000000        26.000000000000000        0.0000000000000000     
   3.5000000000000000        26.500000000000000        0.0000000000000000     
   3.5000000000000000        27.000000000000000        0.0000000000000000     
   3.5000000000000000        27.500000000000000        0.0000000000000000     
   3.5000000000000000        28.000000000000000        0.0000000000000000     
   3.5000000000000000        28.500000000000000        0.0000000000000000     
   3.5000000000000000        29.000000000000000        0.0000000000000000     
   3.5000000000000000        29.500000000000000        0.0000000000000000     
   3.5000000000000000        30.000000000000000        0.0000000000000000     
   3.5000000000000000        30.500000000000000        0.0000000000000000     
   3.5000000000000000        31.000000000000000        0.0000000000000000     
   3.5000000000000000        31.500000000000000        0.0000000000000000     
   3.5000000000000000        32.000000000000000        0.0000000000000000     
   3.5000000000000000        32.500000000000000        0.0000000000000000     
   3.5000000000000000        33.000000000000000        0.0000000000000000     
   3.5000000000000000        33.500000000000000        0.0000000000000000     
   3.5000000000000000        34.000000000000000        0.0000000000000000     
   3.5000000000000000        34.500000000000000        0.0000000000000000     
   3.5000000000000000        35.000000000000000        0.0000000000000000     
   3.5000000000000000        35.500000000000000        0.0000000000000000     
   3.5000000000000000        36.000000000000000        0.0000000000000000     
   3.5000000000000000        36.500000000000000        0.0000000000000000     
   3.5000000000000000        37.000000000000000        0.0000000000000000     
   3.5000000000000000        37.500000000000000        0.0000000000000000     
   3.5000000000000000        38.000000000000000        0.0000000000000000     
   3.5000000000000000        38.500000000000000        0.0000000000000000     
   3.5000000000000000        39.000000000000000        0.0000000000000000     
   3.5000000000000000        39.500000000000000        0.0000000000000000     
   3.0625000000000000        40.000000000000000        0.0000000000000000     
   2.6250000000000000        40.000000000000000        0.0000000000000000     
   2.1875000000000000        40.000000000000000        0.0000000000000000     
   1.7500000000000000        40.000000000000000        0.0000000000000000     
   1.3125000000000000        40.000000000000000        0.0000000000000000     
  0.87500000000000000        40.000000000000000        0.0000000000000000     
  0.43750000000000000        40.000000000000000        0.0000000000000000     
   0.0000000000000000        39.500000000000000        0.0000000000000000     
   0.0000000000000000        39.000000000000000        0.0000000000000000     
   0.0000000000000000        38.500000000000000        0.0000000000000000     
   0.0000000000000000        38.000000000000000        0.0000000000000000     
   0.0000000000000000        37.500000000000000        0.0000000000000000     
   0.0000000000000000        37.000000000000000        0.0000000000000000     
   0.0000000000000000        36.500000000000000        0.0000000000000000     
   0.0000000000000000        36.000000000000000        0.0000000000000000     
   0.0000000000000000        35.500000000000000        0.0000000000000000     
   0.0000000000000000        35.000000000000000        0.0000000000000000     
   0.0000000000000000        34.500000000000000        0.0000000000000000     
   0.0000000000000000        34.000000000000000        0.0000000000000000     
   0.0000000000000000        33.500000000000000        0.0000000000000000     
   0.0000000000000000        33.000000000000000        0.0000000000000000     
   0.0000000000000000        32.500000000000000        0.0000000000000000     
   0.0000000000000000        32.000000000000000        0.0000000000000000     
   0.0000000000000000        31.500000000000000        0.0000000000000000     
   0.0000000000000000        31.000000000000000        0.0000000000000000     
   0.0000000000000000        30.500000000000000        0.0000000000000000     
   0.0000000000000000        30.000000000000000        0.0000000000000000     
   0.0000000000000000        29.500000000000000        0.0000000000000000     
   0.0000000000000000        29.000000000000000        0.0000000000000000     
   0.0000000000000000        28.500000000000000        0.0000000000000000     
   0.0000000000000000        28.000000000000000        0.0000000000000000     
   0.0000000000000000        27.500000000000000        0.0000000000000000     
   0.0000000000000000        27.000000000000000        0.0000000000000000     
   0.0000000000000000        26.500000000000000        0.0000000000000000     
   0.0000000000000000        26.000000000000000        0.0000000000000000     
[...]
 CELL_DATA        1368
 SCALARS T double
 LOOKUP_TABLE default
   20.668106620606277     
   24.404501984975692     
   1675.6687779359199     
   42.853964803873779     
   20.000000213784457     
   21.360554505722401     
   1278.8564148666937     
   21.244880324024400     
   20.076160083116250     
   21.029881334440862     
   20.122511204773730     
   36.874868280579363     
   20.964765518182716     
   44.947530603277109     
   38.112332442449940     
   1211.7839081088762     
   1676.8030354068728     
   20.263682394998593     
   20.236575281421345     
   22.113930469631498     
   20.194147037186507     
   20.010932876835824     
   1736.6046487138324     
   20.018607243135389     
   20.567654960191440     
   24.380294251371549     
   20.175111468495544     
   21.599095122810663     
   20.763305829702251     
   20.089246833349499     
   22.098460713328834     
   20.000000396138610     
   23.827581848285206     
   24.736637879806867     
   24.669698871955607     
   20.000000331078574     
   20.420944210998666     
   20.042414387354359     
   20.142388976631565     
   20.037545772087217     
   20.026501667475021     
   20.948920300349283     
   20.030145488460565     
   43.657872216958310     
   20.314522226118470     
   436.11365371841504     
   428.37942659416007     
   20.809045306015996     
   21.060644644683336     
   696.08100831064110     
   700.66771014712640     
   20.101667296167854     
   20.423035222442607     
   20.000000310150025     
   1708.2683376539346     
   20.000000267725518     
   20.000000789127757     
   20.009919509686320     
   20.005468750253655     
   20.013216725840138     
   20.000001032756408     
   42.183381582794759     
   20.021647289036242     
   20.000002118494947     
   21.815622549684122     
   22.302835400972043     
   20.069447076025714     
   22.221720724420187     
   20.144604946786988     
   20.194971219958358     
   20.000000643828393     
   1676.5128437276937     
   20.000001277215102     
   20.175811961967376     
   20.050959194888847     
   20.071628985127848     
   20.000003199833490     
   20.000008365743838     
   20.000000516432614     
   411.93958324380515     
   20.015155620001792     
   20.004894662477913     
   250.62235434110468     
   20.002753099010146     
   154.75648150997984     
   20.355235402859019     
   20.467359335873461     
   408.04805390127103     
   20.008146935900580     
   860.18343135323494     
   20.021401804006867     
   20.030042423441369     
   62.523491045608040     
   20.000031411168244     
   804.04351749812781     
   20.001085377553711     
   42.771045750329193     
   20.000012390746381     
   20.001323738674522     
   20.000004174888950     
   248.93018811798274     
   20.000002620153079     
   215.62332512702568     
   218.78228316246052     
   20.026807714217270     
   20.006849688122486     
   20.000000502314304     
   20.068944938222501     
   20.000000414313313     
   20.000005042085768     
   27.511296601347372     
   522.29834835441977     
   26.491227790837808     
   20.000590786623956     
   20.000001677151793     
   20.000000214884551     
   135.36920162383370     
   23.124397495714799     
   137.08063992196779     
   20.000242546266364     
   20.000002637875635     
   20.000529961335161     
   20.004744218892661     
   153.74884427615524     
   21.446001571303832     
   309.52551276054811     
   20.057922775965618     
   20.077618640115656     
   20.003462457449874     
   20.463516327188781     
   20.000000647729923     
   20.000739948649361     
   532.83172177151789     
   20.637153936209518     
   20.000010245160613     
   20.000045958121994     
   20.267131891142853     
   86.949607544920426     
   1320.4288639971164     
   88.032992620383766     
   1008.0010362063877     
   482.09056271416580     
   190.86524428491842     
   20.000866547866838     
   20.002392763775404     
   20.000188775443096     
   504.92195335873572     
   20.001647525137287     
   20.000006678006752     
   20.000010333281757     
   20.000237381509908     
   313.54249295064614     
   20.002285702561778     
   57.736087091315319     
   58.233674915299758     
   20.000016006805794     
   20.000163674284849     
   118.32318769244540     
   20.003812413191017     
   20.000037987429334     
   20.000019249690151     
   20.000001635540993     
   38.796795070170795     
   62.138113365333695     
   20.009768094002368     
   21.755929962536065     
   20.000038434341292     
   20.000000197894579     
   245.14293153978699     
   193.24569857379146     
   20.000416745518510     
   20.000099812427866     
   20.000025138354758     
   42.576615392151894     
   50.073780509713892     
   20.000125212482683     
   1012.7645237325667     
   20.351826011659455     
   119.41372419184275     
   20.000058810203885     
   163.46460701267915     
   155.12037441945338     
   35.803748207820448     
   20.000069779167394     
   33.358338868920612     
   20.000241498861030     
   20.003818337982096     
   20.005488818291571     
   56.891901250908802     
   20.000000484356416     
   260.44038569534865     
   20.057776901509619     
   25.522950954318425     
   25.506731581213135     
   28.638913889051086     
   20.000000248751000     
   580.27753901553478     
   20.000278690971932     
   20.000000431313115     
   20.000089827373174     
   26.354690329471953     
   20.000136165741278     
   103.78811483320585     
   20.001841742690935     
   20.002657917364033     
   20.000537731652958     
   98.677807256529903     
   23.334303144204348     
   20.000105841233218     
   20.000000521466262     
   20.000160383191027     
   20.000000954151183     
   24.216341712809871     
   20.000000217747285     
   20.000634864506502     
   20.000065805607868     
   20.001160526583924     
   20.001901505040980     
   20.077783612788430     
   20.000204194166660     
   23.057053929676457     
   20.000000596232063     
   20.003417096159144     
   54.722829098564233     
   20.001264156958065     
   50.549133238213358     
   20.001371702451682     
   20.000043233474109     
   20.000000338149782     
   20.000052304311588     
   20.000337597859883     
   20.000000775083613     
   21.414036151223591     
   20.000006509606429     
   21.984193118253550     
   20.000034375167115     
   20.003558920692875     
   20.000000374568440     
   20.622782366554400     
   20.004172595777206     
   31.755179955827753     
   36.017129870845316     
   326.40559421129251     
   20.713219627717805     
   52.053699288421271     
   67.690919213148575     
   1434.0285730527555     
   64.683879942876359     
   20.260879418983837     
   20.000028232270644     
   20.000011833200002     
   20.010412690005015     
   20.000360557285255     
   20.892735531656502     
   1515.6407638705905     
   20.000009282173341     
   20.000022401077732     
   20.000079068475650     
   20.012099765961235     
   20.000426287750223     
   20.000000896579568     
   740.27384238971001     
   571.71307727399926     
   20.028989168813371     
   20.005649715479048     
   20.001139577978496     
   20.383391992692996     
   20.000000917311109     
   20.033420135196980     
   1459.2519473521218     
   28.867678761155798     
   20.128652195557546     
   20.000285168325771     
   20.000363209815241     
   20.000243226203519     
   20.000000931392449     
   20.076910296361294     
   20.000000846830378     
   1381.4159500129128     
   1188.6601727696795     
   20.000000163542641     
   1251.7429801356484     
   20.000001022042252     
   20.087962815248442     
   1366.5579225490289     
   20.004965008261436     
   30.266663391018753     
   867.02809820892969     
   1389.3723124571140     
   20.000003398480711     
   24.347435158838220     
   20.000000328146999     
   20.000018388808126     
   20.000267147407367     
   20.000400933401519     
   20.000007594292047     
   20.000000484148863     
   20.000003752108039     
   20.000000398931878     
   920.03132515615744     
   22.047698131005610     
   20.000014432887877     
   657.28462791637162     
   20.000000349861455     
   20.000005906788328     
   20.922263394609246     
   20.396268991619088     
   20.000000208515157     
   20.000000305994700     
   1175.9635818534273     
   20.000000655080651     
   1289.0657083452945     
   1069.4485360363212     
   20.000358065358267     
   20.000282116081312     
   1478.3363576183501     
   29.732603123449390     
   330.81919217792051     
   20.019176143105625     
   20.000000460063870     
   20.000000257028827     
   20.000001039897455     
   778.69847195731381     
   20.000126100262445     
   20.000000676440802     
   20.000024669429372     
   20.000107294795274     
   20.002463323298151     
   1317.8494018934093     
   763.17978921184908     
   20.000000410750616     
   20.000000832607370     
   48.406667188266375     
   1198.8699681585360     
   20.000118476813185     
   20.000001491879409     
   1212.0261541302182     
   1288.4074117698599     
   20.002870595043426     
   20.000793342538142     
   1005.9845521410689     
   20.000000706848816     
   20.000003556659134     
   20.000001950707592     
   20.000002247524655     
   910.80467816053226     
   20.000932201263350     
   20.000003076971929     
   20.000004062706527     
   29.271728763098572     
   26.762272078045708     
   20.000001661830687     
   20.000000559511996     
   20.003950292859056     
   20.000001329266077     
   1139.6739552512440     
   20.000002620023110     
   1037.0198022148029     
   20.000001358715441     
   858.17464486365009     
   20.000000532786849     
   973.08420983843143     
   776.37205670711057     
   1031.2516625628905     
   1206.3373462294462     
   1034.1852353510126     
   20.000001233430410     
   20.000000586787909     
   20.000001050488397     
   870.50029744905714     
   837.53258225214199     
   759.81739333484700     
   732.35692936736484     
   1117.0926001547518     
   660.69786268638813     
   20.000109254763927     
   20.000001421370232     
   20.000005357068449     
   20.000004873385507     
   1231.8070612531224     
   886.48393817393412     
   890.42304968751205     
   963.82083839199686     
   627.15111694314783     
   718.07101958529768     
   20.000005332754977     
   20.000004183445437     
   20.000015386063698     
   558.46820327823013     
   828.66481338626591     
   556.30598604407430     
   20.000006363185943     
   20.000023759598285     
   20.000031808440202     
   626.05310602176087     
   468.32014335964823     
   761.92661106552009     
   20.000013457381602     
   608.62774880741893     
   647.86261189600543     
   20.000005560419062     
   20.000020228557702     
   656.77426895723215     
   20.000048480733522     
   20.000020634654252     
   534.43041990927338     
   20.000036389456124     
   20.000020350128768     
   20.000016119456344     
   20.000055464439846     
   561.48734804636115     
   454.15210852110766     
   477.58480215503226     
   20.000006464370134     
   385.20476377075261     
   406.76461344060675     
   20.000112297861474     
   20.000138194587848     
   20.000008717568509     
   20.000136378295529     
   710.46199957670956     
   20.000307164676080     
   20.000368650493439     
   20.000459273423708     
   20.000162786143289     
   297.04418297283667     
   20.000255110530205     
   20.000207279579893     
   399.99461835657570     
   20.000464504724292     
   20.000310767867948     
   20.000010002135856     
   20.000617026724978     
   20.000535654604530     
   20.000411414714165     
   20.000999860596718     
   20.000381195456576     
   20.002132419033515     
   20.002527240977873     
   20.006479366346291     
   20.004495675937438     
   20.003765375587268     
   20.005409839008095     
   20.009107252837218     
   20.025536955064762     
   20.010992327952444     
   20.009194846580399     
   20.018473967019901     
   20.013070211567335     
   20.068243875163724     
   20.030563241235626     
   20.025777137909646     
   20.050176960063791     
   20.036053865819770     
   20.036346662916813     
   20.015538242319050     
   20.050105377858298     
   20.039634990965684     
   20.028941548865525     
   20.026185477400066     
   20.173300073690761     
   20.080993655357155     
   20.068869338383024     
   20.129926519045316     
   20.094795830282141     
   20.042515959407773     
   387.85342640434379     
   20.421110681528091     
   20.204789334641486     
   20.175239321073914     
   20.319564897371468     
   20.236710968709897     
   20.110900483303336     
   20.308545819850156     
   20.242355349830948     
   20.167300421094584     
   20.225391332742539     
   20.976480574037517     
   20.493328097629149     
   20.425631181559172     
   20.752307920842885     
   20.567297524577608     
   20.275962174096847     
   20.183019175866338     
   22.164769864937842     
   21.134726190155074     
   20.986670161276134     
   21.691730370086699     
   21.295267092250949     
   20.654382815487548     
   21.523069315672679     
   21.234219810315135     
   20.888334886592343     
   21.161432745233586     
   24.592921524109148     
   22.495630068726712     
   22.186544762719542     
   23.642803400847630     
   22.823706610136853     
   21.482624036524196     
   238.68087553489116     
   273.37113041308544     
   249.52275106351829     
   20.957252885835061     
   25.890423001173957     
   132.68540081387073     
   290.01789354779208     
   144.31679402887266     
   130.56959661930929     
   148.10708302629413     
   29.341135196998511     
   271.44552129947743     
   238.66838552249880     
   291.30783057572830     
   25.255058589384223     
   24.637726049851157     
   73.013568760447711     
   232.85096084757868     
   123.54809230281660     
   68.799915696803495     
   147.67258420298126     
   23.213562553868453     
   111.63597444400524     
   236.26255079588933     
   26.687224235391142     
   27.517736416151021     
   323.38043370072222     
   199.54167099509314     
   179.07219831996676     
   125.78989821123108     
   41.820478706918905     
   106.31116543415813     
   34.714421833767972     
   33.445082401943637     
   80.606289178900795     
   43.100018936082144     
   330.38953720213112     
   30.601808444831530     
   29.426872116959146     
   246.97137817634612     
   34.653837611363755     
   237.38453795422132     
   82.704921642196510     
   155.15742301264430     
   41.710294789250270     
   172.53561866687494     
   172.75841062687937     
   168.98334262641578     
   232.35876478131740     
   31.761137787161452     
   153.15442231331943     
   96.456700166911119     
   96.110776343481987     
   295.09205809320429     
   93.546608897727879     
   328.13544211912409     
   62.209314284460540     
   69.628580009549424     
   79.831290246635476     
   210.62921793532351     
   341.46747206221096     
   46.750309338979264     
   182.73584972436512     
   270.02582258655542     
   20.000882890344769     
   72.819228279690108     
   77.913517824774900     
   315.56876628750530     
   20.002384428609108     
   20.001144066700924     
   62.188699921996012     
   33.285164089129140     
   84.305791705077681     
   133.16226938189109     
   441.01159687359279     
   318.49363481939099     
   232.44307517394509     
   264.31216502734657     
   145.00163726968287     
   93.432064934340076     
   62.121924692057917     
   43.520483765527580     
   32.734388935133616     
   26.600714388201215     
   23.320752459766666     
   21.593317657297654     
   20.736151533273421     
   20.323950559873104     
   20.136322452986605     
   20.053959464134191     
   20.021005060643699     
   20.007594300378660     
   20.002661939805389     
   20.001853080004633     
   20.001279904371209     
   20.001655911462283     
   20.000602792939159     
   20.000785288997662     
   20.000187904840459     
   20.000055323277191     
   20.000015471269798     
   20.000004134550746     
   20.001013423548219     
   20.000003385673750     
   20.000013145816560     
   20.000048464379482     
   20.000170418520590     
   20.000567979741387     
   20.001231519792277     
   20.001793725898910     
   20.001485168075892     
   20.002606682449894     
   20.002165310334348     
   20.007759650518810     
   20.021921789702450     
   20.059017366877530     
   20.151526360667500     
   20.370896192888548     
   20.866083414008383     
   21.932912099658349     
   24.127830131613745     
   28.448735220033608     
   36.611834371928957     
   51.484567976140063     
   77.756051214506698     
   90.201172606853106     
   83.278638114249418     
   105.20646894992433     
   122.73493126647598     
   197.91539758347585     
   320.87518658525835     
   518.52631008308117     
   90.509164255651584     
   202.51224881619851     
   213.86106931290146     
   147.46739205742401     
   20.000688402141883     
   105.35629508332892     
   278.99185139494188     
   59.927744312837802     
   113.81933756048080     
   45.769043290078578     
   20.000835677649317     
   51.892703464758441     
   97.668392075585459     
   251.63979674728085     
   63.139034862941912     
   346.15283564292264     
   42.650215309483833     
   69.276993650812386     
   155.82134828470666     
   113.23847266470229     
   55.749895203162446     
   107.72385577626159     
   47.210060142368100     
   48.909481526265907     
   43.554211921260773     
   60.127722046933030     
   52.928166528437352     
   126.58008189396661     
   279.22382349311897     
   168.57771281507692     
   112.76067860787380     
   48.007544976149667     
   34.388439005985745     
   58.935810458461845     
   108.14312454663393     
   71.463338857227313     
   54.443674340303005     
   67.660555101602412     
   38.290791272047379     
   92.653936545180159     
   40.845697970592383     
   41.475714326691467     
   35.185535629482992     
   38.935480870287513     
   37.543614906869912     
   145.02344730463255     
   41.738112047743655     
   147.45131700973241     
   31.773922827124334     
   36.892133254186497     
   91.998808808535543     
   34.046160250310564     
   25.741716793756051     
   31.949690492471102     
   93.410781091621772     
   84.087375021950038     
   97.531483260482148     
   31.153288028917832     
   27.263265854678934     
   180.74437336818946     
   26.149911940726877     
   212.03293951975758     
   29.681349853644310     
   29.002855684953143     
   22.771086898096335     
   26.193905787266615     
   27.691576963783142     
   203.02262324710819     
   25.794262944502233     
   27.115397148099056     
   25.883472297483845     
   26.109227029939937     
   22.995307888772810     
   25.598129365559164     
   23.515252752433337     
   24.828031619264003     
   24.420688443148315     
   23.797534558347586     
   21.268336119320164     
   22.825362175741780     
   23.460859501311049     
   22.953677135608601     
   22.688084502483679     
   21.396900260044198     
   21.637029807003671     
   22.299815019097835     
   22.091575382278407     
   21.780350812861673     
   20.565337830798839     
   21.298604439262714     
   21.611862603399160     
   21.363302026760557     
   21.232979375778239     
   20.619665256149997     
   20.739228225125437     
   21.047410986952894     
   20.945588626820591     
   20.800229582804910     
   20.238144909094476     
   20.571433083128447     
   20.719060633489104     
   20.604754354102067     
   20.542741037855055     
   20.266681146389196     
   20.315923105429739     
   20.457190358531054     