# vtk DataFile Version 2.0
 temperature
 ASCII
 DATASET UNSTRUCTURED_GRID
 POINTS         773  double
   0.0000000000000000        0.0000000000000000        0.0000000000000000     
   3.5000000000000000        0.0000000000000000        0.0000000000000000     
   3.5000000000000000        40.000000000000000        0.0000000000000000     
   0.0000000000000000        40.000000000000000        0.0000000000000000     
  0.43750000000000000        0.0000000000000000        0.0000000000000000     
  0.87500000000000000        0.0000000000000000        0.0000000000000000     
   1.3125000000000000        0.0000000000000000        0.0000000000000000     
   1.7500000000000000        0.0000000000000000        0.0000000000000000     
   2.1875000000000000        0.0000000000000000        0.0000000000000000     
   2.6250000000000000        0.0000000000000000        0.0000000000000000     
   3.0625000000000000        0.0000000000000000        0.0000000000000000     
   3.5000000000000000       0.50000000000000000        0.0000000000000000     
   3.5000000000000000        1.0000000000000000        0.0000000000000000     
   3.5000000000000000        1.5000000000000000        0.0000000000000000     
   3.5000000000000000        2.0000000000000000        0.0000000000000000     
   3.5000000000000000        2.5000000000000000        0.0000000000000000     
   3.5000000000000000        3.0000000000000000        0.0000000000000000     
   3.5000000000000000        3.5000000000000000        0.0000000000000000     
   3.5000000000000000        4.0000000000000000        0.0000000000000000     
   3.5000000000000000        4.5000000000000000        0.0000000000000000     
   3.5000000000000000        5.0000000000000000        0.0000000000000000     
   3.5000000000000000        5.5000000000000000        0.0000000000000000     
   3.5000000000000000        6.0000000000000000        0.0000000000000000     
   3.5000000000000000        6.5000000000000000        0.0000000000000000     
   3.5000000000000000        7.0000000000000000        0.0000000000000000     
   3.5000000000000000        7.5000000000000000        0.0000000000000000     
   3.5000000000000000        8.0000000000000000        0.0000000000000000     
   3.5000000000000000        8.5000000000000000        0.0000000000000000     
   3.5000000000000000        9.0000000000000000        0.0000000000000000     
   3.5000000000000000        9.5000000000000000        0.0000000000000000     
   3.5000000000000000        10.000000000000000        0.0000000000000000     
   3.5000000000000000        10.500000000000000        0.0000000000000000     
   3.5000000000000000        11.000000000000000        0.0000000000000000     
   3.5000000000000000        11.500000000000000        0.0000000000000000     
   3.5000000000000000        12.000000000000000        0.0000000000000000     
   3.5000000000000000        12.500000000000000        0.0000000000000000     
   3.5000000000000000        13.000000000000000        0.0000000000000000     
   3.5000000000000000        13.500000000000000        0.0000000000000000     
   3.5000000000000000        14.000000000000000        0.0000000000000000     
   3.5000000000000000        14.500000000000000        0.0000000000000000     
   3.5000000000000000        15.000000000000000        0.0000000000000000     
   3.5000000000000000        15.500000000000000        0.0000000000000000     
   3.5000000000000000        16.000000000000000        0.0000000000000000     
   3.5000000000000000        16.500000000000000        0.0000000000000000     
   3.5000000000000000        17.000000000000000        0.0000000000000000     
   3.5000000000000000        17.500000000000000        0.0000000000000000     
   3.5000000000000000        18.000000000000000        0.0000000000000000     
   3.5000000000000000        18.500000000000000        0.0000000000000000     
   3.5000000000000000        19.000000000000000        0.0000000000000000     
   3.5000000000000000        19.500000000000000        0.0000000000000000     
   3.5000000000000000        20.000000000000000        0.0000000000000000     
   3.5000000000000000        20.500000000000000        0.0000000000000000     
   3.5000000000000000        21.000000000000000        0.0000000000000000     
   3.5000000000000000        21.500000000000000        0.0000000000000000     
   3.5000000000000000        22.000000000000000        0.0000000000000000     
   3.5000000000000000        22.500000000000000        0.0000000000000000     
   3.5000000000000000        23.000000000000000        0.0000000000000000     
   3.5000000000000000        23.500000000000000        0.0000000000000000     
   3.5000000000000000        24.000000000000000        0.0000000000000000     
   3.5000000000000000        24.500000000000000        0.0000000000000000     
   3.5000000000000000        25.000000000000000        0.0000000000000000     
   3.5000000000000000        25.500000000000000        0.0000000000000000     
   3.5000000000000000        26.000000000000000        0.0000000000000000     
   3.5000000000000000        26.500000000000000        0.0000000000000000     
   3.5000000000000000        27.000000000000000        0.0000000000000000     
   3.5000000000000000        27.500000000000000        0.0000000000000000     
   3.5000000000000000        28.000000000000000        0.0000000000000000     
   3.5000000000000000        28.500000000000000        0.0000000000000000     
   3.5000000000000000        29.000000000000000        0.0000000000000000     
   3.5000000000000000        29.500000000000000        0.0000000000000000     
   3.5000000000000000        30.000000000000000        0.0000000000000000     
   3.5000000000000000        30.500000000000000        0.0000000000000000     
   3.5000000000000000        31.000000000000000        0.0000000000000000     
   3.5000000000000000        31.500000000000000        0.0000000000000000     
   3.5000000000000000        32.000000000000000        0.0000000000000000     
   3.5000000000000000        32.500000000000000        0.0000000000000000     
   3.5000000000000000        33.000000000000000        0.0000000000000000     
   3.5000000000000000        33.500000000000000        0.0000000000000000     
   3.5000000000000000        34.000000000000000        0.0000000000000000     
   3.5000000000000000        34.500000000000000        0.0000000000000000     
   3.5000000000000000        35.000000000000000        0.0000000000000000     
   3.5000000000000000        35.500000000000000        0.0000000000000000     
   3.5000000000000000        36.000000000000000        0.0000000000000000     
   3.5000000000000000        36.500000000000000        0.0000000000000000     
   3.5000000000000000        37.000000000000000        0.0000000000000000     
   3.5000000000000000        37.500000000000000        0.0000000000000000     
   3.5000000000000000        38.000000000000000        0.0000000000000000     
   3.5000000000000000        38.500000000000000        0.0000000000000000     
   3.5000000000000000        39.000000000000000        0.0000000000000000     
   3.5000000000000000        39.500000000000000        0.0000000000000000     
   3.0625000000000000        40.000000000000000        0.0000000000000000     
   2.6250000000000000        40.000000000000000        0.0000000000000000     
   2.1875000000000000        40.000000000000000        0.0000000000000000     
   1.7500000000000000        40.000000000000000        0.0000000000000000     
   1.3125000000000000        40.000000000000000        0.0000000000000000     
  0.87500000000000000        40.000000000000000        0.0000000000000000     
  0.43750000000000000        40.000000000000000        0.0000000000000000     
   0.0000000000000000        39.500000000000000        0.0000000000000000     
   0.0000000000000000        39.000000000000000        0.0000000000000000     
   0.0000000000000000        38.500000000000000        0.0000000000000000     
   0.0000000000000000        38.000000000000000        0.0000000000000000     
   0.0000000000000000        37.500000000000000        0.0000000000000000     
   0.0000000000000000        37.000000000000000        0.0000000000000000     
   0.0000000000000000        36.500000000000000        0.0000000000000000     
   0.0000000000000000        36.000000000000000        0.0000000000000000     
   0.0000000000000000        35.500000000000000        0.0000000000000000     
   0.0000000000000000        35.000000000000000        0.0000000000000000     
   0.0000000000000000        34.500000000000000        0.0000000000000000     
   0.0000000000000000        34.000000000000000        0.0000000000000000     
   0.0000000000000000        33.500000000000000        0.0000000000000000     
   0.0000000000000000        33.000000000000000        0.0000000000000000     
   0.0000000000000000        32.500000000000000        0.0000000000000000     
   0.0000000000000000        32.000000000000000        0.0000000000000000     
   0.0000000000000000        31.500000000000000        0.0000000000000000     
   0.0000000000000000        31.000000000000000        0.0000000000000000     
   0.0000000000000000        30.500000000000000        0.0000000000000000     
   0.0000000000000000        30.000000000000000        0.0000000000000000     
   0.0000000000000000        29.500000000000000        0.0000000000000000     
   0.0000000000000000        29.000000000000000        0.0000000000000000     
   0.0000000000000000        28.500000000000000        0.0000000000000000     
   0.0000000000000000        28.000000000000000        0.0000000000000000     
   0.0000000000000000        27.500000000000000        0.0000000000000000     
   0.0000000000000000        27.000000000000000        0.0000000000000000     
   0.0000000000000000        26.500000000000000        0.0000000000000000     
   0.0000000000000000        26.000000000000000        0.0000000000000000     
[...]
 CELL_DATA        1368
 SCALARS T double
 LOOKUP_TABLE default
   20.832593682239132     
   25.093903647984284     
   1676.5070480595023     
   44.388893118651552     
   20.000000660455342     
   21.647961802726055     
   1279.5928684148544     
   21.518335001378571     
   20.106148510853153     
   21.264413247226592     
   20.166837151659518     
   38.335135112151931     
   21.200911735003594     
   46.633164108028325     
   39.616927374764650     
   1212.5372996095241     
   1677.6615020969227     
   20.347364159001948     
   20.314384912823080     
   22.531047489828790     
   20.259985308993603     
   20.016984144495179     
   1737.2642789035863     
   20.028140967842042     
   20.710764784409136     
   25.033785108140844     
   20.238399304681835     
   21.926040579683040     
   20.951178461488905     
   20.123662391705171     
   22.495013644322000     
   20.000001184838190     
   24.449150407399888     
   25.452886498346523     
   25.345327754217106     
   20.000001000378305     
   20.546884527130139     
   20.061731774109791     
   20.193828949420439     
   20.055190062945933     
   20.040072467677902     
   21.173324906938038     
   20.044714857251016     
   45.408658998626350     
   20.411539732115912     
   440.52668455390796     
   432.72679491655964     
   21.014229774763781     
   21.311331899148584     
   697.68983109267003     
   702.44337408022920     
   20.139339380457784     
   20.545062372888189     
   20.000000938977003     
   1708.8246464005479     
   20.000000816533905     
   20.000002260464463     
   20.015726341555865     
   20.008837896915114     
   20.020379634110139     
   20.000002911006153     
   43.811130581579228     
   20.032725545801419     
   20.000005718946269     
   22.186276111461144     
   22.741762603258639     
   20.099458065169738     
   22.631660040927144     
   20.198503968456009     
   20.263329447743224     
   20.000001868865077     
   1677.1691127437130     
   20.000003550806618     
   20.237394996876681     
   20.073602501904240     
   20.101555727015018     
   20.000008407323882     
   20.000020766051712     
   20.000001521458152     
   416.49518882143809     
   20.023096086772075     
   20.007992672202942     
   255.27942432542656     
   20.004687555059679     
   159.05084591798391     
   20.464750947757338     
   20.602772443429309     
   412.57604282794046     
   20.013026885738835     
   861.59158376524420     
   20.032678686604591     
   20.044992946366751     
   65.375103894679867     
   20.000071955630897     
   805.42663126249533     
   20.001974641759947     
   44.854849359298370     
   20.000029979452762     
   20.002352518269632     
   20.000010799881800     
   253.55235024896240     
   20.000006973310459     
   218.35874208214173     
   221.68306826580869     
   20.040168717159720     
   20.010967947039536     
   20.000001479671717     
   20.096861144709582     
   20.000001236845577     
   20.000012885861842     
   28.417173203506675     
   526.19947142213778     
   27.462771865159635     
   20.001111621057429     
   20.000004591857998     
   20.000000662920986     
   138.06298486333199     
   23.716487906692933     
   139.91014058210607     
   20.000490472819362     
   20.000007023961171     
   20.000997247907186     
   20.007919320962436     
   158.01005332650900     
   21.786400752934775     
   314.05692055071546     
   20.083625982739388     
   20.110263143207501     
   20.005835842079673     
   20.593473788677915     
   20.000001881139983     
   20.001377203859494     
   536.82871981111009     
   20.821017794479463     
   20.000025091537893     
   20.000102706711036     
   20.360535565059973     
   89.361391156368057     
   1321.2828244510661     
   90.562621342469129     
   1009.0338819327816     
   484.26592663808646     
   195.24372219040950     
   20.001593543689680     
   20.004120298713953     
   20.000376675572372     
   507.14643910850413     
   20.002899272398796     
   20.000016801039887     
   20.000025316110353     
   20.000479884862088     
   318.14343945436036     
   20.003980925232632     
   59.720957534716256     
   60.293572978472923     
   20.000038156241928     
   20.000326548311978     
   122.18015353781669     
   20.006288577037086     
   20.000085929258695     
   20.000045347296176     
   20.000004480462668     
   40.120193495343280     
   64.964635636973128     
   20.015320184539380     
   22.099554798592539     
   20.000086954539480     
   20.000000612095850     
   247.85603234481431     
   197.69245289896017     
   20.000792827064821     
   20.000209381390942     
   20.000058353207759     
   44.642409216774659     
   52.443739798539859     
   20.000252690809194     
   1013.9068732792271     
   20.456261352618970     
   123.32501468945476     
   20.000129575865806     
   166.33663350800796     
   157.87217096201942     
   37.475666736343690     
   20.000152070074876     
   34.660615517127944     
   20.000476428544168     
   20.006438534316306     
   20.009062823145527     
   59.180983132780639     
   20.000001427251114     
   263.27261978157065     
   20.082608584366326     
   26.247240534245350     
   26.235941000529131     
   29.777744596621918     
   20.000000743184110     
   582.33668360713557     
   20.000536122694943     
   20.000001269026754     
   20.000192927841852     
   27.305853850079494     
   20.000285222108690     
   106.43983042088452     
   20.003240866763104     
   20.004577637094986     
   20.001035164827837     
   101.20419427287500     
   23.881613400752247     
   20.000224944174729     
   20.000001513369941     
   20.000332458344715     
   20.000002693265593     
   24.928670752851559     
   20.000000650842772     
   20.001208964400320     
   20.000141525590163     
   20.002134353978047     
   20.003307580470214     
   20.109596942634340     
   20.000417432326561     
   23.636436647925262     
   20.000001732602065     
   20.005696789249434     
   56.948135858547239     
   20.002273993849649     
   52.958504638808222     
   20.002495391254872     
   20.000095364753079     
   20.000000994684253     
   20.000113764782849     
   20.000658447780715     
   20.000002218449801     
   21.747110923510927     
   20.000016387424132     
   22.404516191024850     
   20.000076687484295     
   20.006127038875608     
   20.000001101756904     
   20.802616502029245     
   20.007109948936634     
   32.961979777426308     
   37.714784104863512     
   329.70215802935172     
   20.894907260348042     
   54.007727432298068     
   69.933601262325595     
   1435.0270815934759     
   66.810936390308626     
   20.352114519259775     
   20.000063896669118     
   20.000028233049388     
   20.016840384006656     
   20.000710939356690     
   21.126159191383287     
   1516.7975525918698     
   20.000022415966889     
   20.000051280121241     
   20.000167762388536     
   20.019381039408035     
   20.000831247093014     
   20.000002453065676     
   742.87839304565421     
   573.57587148663310     
   20.044209383656682     
   20.009229300802016     
   20.002049297765844     
   20.505492222421864     
   20.000002588479294     
   20.050508294488633     
   1460.3339021308809     
   30.038368595609079     
   20.176726673985037     
   20.000569557788349     
   20.000690950753654     
   20.000473958691774     
   20.000002588240903     
   20.111013123602081     
   20.000002352569005     
   1383.1419729363352     
   1189.0956595310447     
   20.000000494945176     
   1253.2805424119529     
   20.000002796707850     
   20.125902890097450     
   1367.9079154487472     
   20.008195711487506     
   31.277866490991482     
   868.84609984871474     
   1390.7903242246655     
   20.000008671024418     
   25.082222297535498     
   20.000000993027950     
   20.000042710829902     
   20.000527014741131     
   20.000771985814087     
   20.000018610744913     
   20.000001405017802     
   20.000009573771798     
   20.000001157252662     
   922.01600667158402     
   22.481707657079763     
   20.000033927660997     
   659.95028040566740     
   20.000001014806084     
   20.000014658007526     
   21.163516528136523     
   20.522523997053142     
   20.000000637942392     
   20.000000913883554     
   1177.7721821997327     
   20.000001818337861     
   1290.2551058562372     
   1071.4252663869593     
   20.000689808984681     
   20.000549457840460     
   1479.7933182230881     
   30.716459406331008     
   333.99576520310961     
   20.029290154648219     
   20.000001353085651     
   20.000000756375250     
   20.000002932362801     
   781.02766935711009     
   20.000257745129147     
   20.000001935553886     
   20.000057278209212     
   20.000222126490332     
   20.004333357611191     
   1319.5107569191885     
   764.17217235750741     
   20.000001173655615     
   20.000002380946615     
   50.267964623018919     
   1201.1323188245422     
   20.000245357155844     
   20.000004026754063     
   1213.4702794355705     
   1290.4170413413203     
   20.004999632622699     
   20.001492345496054     
   1008.2313688822203     
   20.000002024094325     
   20.000008943799170     
   20.000005193612683     
   20.000005811954438     
   913.19260800145389     
   20.001735107479778     
   20.000007967643754     
   20.000010216590237     
   30.373061942573994     
   27.589687527850710     
   20.000004356101318     
   20.000001576364124     
   20.006586154351549     
   20.000003692522611     
   1141.8173797678905     
   20.000006679453271     
   1039.3594880485671     
   20.000003666463289     
   860.82404201588338     
   20.000001523397323     
   975.70281356325700     
   779.13364251434564     
   1033.1072781586670     
   1208.2204091420824     
   1036.9459235153788     
   20.000003429843922     
   20.000001677924534     
   20.000002832235925     
   872.74087548949865     
   840.54940043299996     
   762.96154301050490     
   735.36440640699379     
   1119.6152986727407     
   663.78281914105241     
   20.000223321733596     
   20.000003780517122     
   20.000013293972891     
   20.000012270915725     
   1232.9071195588060     
   889.70107210484593     
   893.19548198964924     
   966.81435403637897     
   630.05459672849247     
   721.42988777294966     
   20.000013603780388     
   20.000010829364964     
   20.000035682482181     
   562.67415713544392     
   832.07787700933170     
   560.46340344775399     
   20.000015568523558     
   20.000052977763854     
   20.000070027876792     
   629.35944340411322     
   471.48303266806602     
   765.52948211093201     
   20.000031209049038     
   612.71011872737665     
   651.31755309750167     
   20.000013605514447     
   20.000046305046943     
   660.69715353950619     
   20.000104061339965     
   20.000046632356462     
   537.99392808660423     
   20.000079084950308     
   20.000047855457542     
   20.000038439159052     
   20.000119056704090     
   564.84289525412498     
   457.94261352387389     
   481.15668526468437     
   20.000015598261712     
   389.15017047492177     
   410.52222828202042     
   20.000238192424195     
   20.000289430931392     
   20.000020758770269     
   20.000282648963914     
   714.23921847496354     
   20.000612787853971     
   20.000727025249308     
   20.000894453077674     
   20.000333157924718     
   299.72133875118374     
   20.000515103756822     
   20.000423672788436     
   404.09251785178736     
   20.000904707255511     
   20.000619994131640     
   20.000023504828544     
   20.001146689751970     
   20.000995637753729     
   20.000773232151580     
   20.001859154667017     
   20.000751402808238     
   20.003791173444753     
   20.004445750525566     
   20.010801038368427     
   20.007655730829580     
   20.006480161039995     
   20.009115140826744     
   20.014873684015278     
   20.039303181339825     
   20.017773597611761     
   20.015018812343531     
   20.028984871612877     
   20.020918969227591     
   20.099349721340499     
   20.046599967355192     
   20.039678430756858     
   20.074372065503873     
   20.054447467074205     
   20.052921133087072     
   20.024626914360386     
   20.071639639712185     
   20.057164074877459     
   20.042502110014834     
   20.038840018941887     
   20.239587276450248     
   20.116884981993884     
   20.100274745448516     
   20.182613868690851     
   20.135584240618027     
   20.063620508421945     
   392.20783121374302     
   20.554922712493301     
   20.280786690915622     
   20.242278798757500     
   20.427650741032679     
   20.321949870728496     
   20.157269633469170     
   20.400056515864293     
   20.316819116021446     
   20.224010704808574     
   20.297032899739392     
   21.231328970649873     
   20.645164940582145     
   20.560909850882588     
   20.962128586144900     
   20.736323468762901     
   20.372293869857675     
   20.242910357263437     
   22.622499354372540     
   21.420988641879731     
   21.244250936543761     
   22.075856010244674     
   21.610883339658532     
   20.843147025517748     
   21.821234241824168     
   21.485260596140364     
   21.090651684348465     
   21.407061148158679     
   25.367006874835322     
   23.004486809870638     
   22.649057538407192     
   24.305768840622939     
   23.378593961278586     
   21.831638816889562     
   242.43358477210856     
   277.72934295744739     
   253.12054955591339     
   21.166553217306870     
   26.808227947537386     
   136.04446368115518     
   294.27400120583081     
   148.29640177537254     
   134.37810785026269     
   151.66065677586437     
   30.571415321309502     
   274.71615218695223     
   243.11174060495784     
   294.87702743739675     
   26.106579699484922     
   25.419725040356738     
   75.688774711570574     
   237.17600738059758     
   127.34776039182604     
   71.253518647960021     
   151.76369276237725     
   23.821762414090088     
   115.24612364423685     
   239.39581701556841     
   27.685903225650279     
   28.593960813341347     
   327.71338730752916     
   203.79730360298879     
   183.17610727844490     
   129.43115910086698     
   43.638850489608743     
   109.26810500648122     
   36.342792788236068     
   34.938281306663619     
   83.487776161181955     
   44.935637878812926     
   334.06286894615045     
   31.940102562914660     
   30.669391492629593     
   251.22833802906683     
   36.209128450385741     
   241.45675367023790     
   85.880922059731105     
   158.62689698084301     
   43.429835878269884     
   176.46730502171201     
   176.39969026745615     
   173.12123223683093     
   235.70777541207900     
   33.185423383705839     
   157.13205491024686     
   100.08625388902642     
   99.517139018695005     
   299.04803829309219     
   96.267177125637815     
   332.17098190926890     
   64.466702180764287     
   72.294586482997374     
   82.859651653523201     
   214.83911235278185     
   345.68643767164957     
   48.864655643096881     
   186.61388093505582     
   272.14617137179147     
   20.001586054414549     
   75.656770240959872     
   81.031197681800947     
   317.82395925339438     
   20.004059193664773     
   20.002033389417708     
   64.879309744650328     
   34.819856241035993     
   87.364833518825662     
   136.78875888383010     
   442.68447811553762     
   320.50369609223458     
   234.67818905891468     
   266.68231348044918     
   147.30206702672200     
   95.595915528182005     
   63.983036604752883     
   45.004047843848305     
   33.837945539109917     
   27.361104467093572     
   23.815934596732852     
   21.893975614413588     
   20.909030955441882     
   20.417230035873992     
   20.183798063870309     
   20.076488900123131     
   20.031408652544577     
   20.012027464953125     
   20.004482691574477     
   20.003187330730405     
   20.002248980736042     
   20.002879293635129     
   20.001107311410930     
   20.001427089346869     
   20.000370140905346     
   20.000117242967669     
   20.000035406377357     
   20.000010250964976     
   20.001884224775388     
   20.000008880077122     
   20.000031744816503     
   20.000108142995977     
   20.000352513017223     
   20.001093260237340     
   20.002263801514982     
   20.003224640821831     
   20.002699398215288     
   20.004583947647820     
   20.003848897494677     
   20.012802401098789     
   20.034064168480345     
   20.086693490909088     
   20.211209467467636     
   20.492467184449023     
   21.099731792189338     
   22.356448727633591     
   24.850955559290597     
   29.609626440739564     
   38.361306909101437     
   53.956016776247750     
   81.020047357210430     
   93.725462935174193     
   86.658367471652184     
   108.98296387422437     
   126.74179846312603     
   202.45433560236103     
   325.56459586403270     
   522.85540787350931     
   93.869842351152826     
   206.53553377673313     
   217.80379267474652     
   151.27187222776462     
   20.001309693147345     
   108.94482464315418     
   283.07085812360936     
   62.477432142197380     
   117.27521600258525     
   47.913266824779555     
   20.001571960466659     
   54.279754464196650     
   100.93079869760243     
   255.61606869515757     
   65.742557872149263     
   350.04251879653646     
   44.633010888621804     
   72.081113021269829     
   159.59181709700098     
   116.44856303029204     
   58.143103052643696     
   111.17800709285007     
   49.247952107284505     
   51.076711911281379     
   45.509796571436247     
   62.830618238252619     
   55.271407968005754     
   129.99749238138617     
   282.93972162333853     
   171.84046231530914     
   116.63518772944025     
   50.220766367726512     
   35.843017815463945     
   61.560426971206070     
   111.38541788190687     
   74.399406367998708     
   56.894832479090681     
   70.534595888671447     
   40.056017750410170     
   95.903313728259619     
   42.761149670762826     
   43.448507883471940     
   36.724394260118402     
   40.675890409793794     
   39.234741959542909     
   148.24652638465608     
   43.639549736232773     
   150.51200640141803     
   33.142185473973811     
   38.596234694206338     
   94.836964364724778     
   35.535264491871693     
   26.567188569155920     
   33.285865663800294     
   96.490034025136239     
   86.952670669705483     
   100.57565067636064     
   32.448410580652968     
   28.225716883733732     
   184.29188060321536     
   27.002981693579972     
   215.63247444305995     
   30.859283281562416     
   30.142666319623565     
   23.277185249285282     
   27.014258650702914     
   28.713086436285323     
   206.73889716741721     
   26.593005934115698     
   28.098119828080655     
   26.766195515773262     
   26.990438941931572     
   23.523579320197737     
   26.438305214111836     
   24.111244203156957     
   25.583269196818065     
   25.139413150835111     
   24.440121110700822     
   21.557242974792352     
   23.361996049499577     
   24.070121079592234     
   23.494517060573354     
   23.198703846202935     
   21.704081506923334     
   21.984951942026608     
   22.753599174978635     
   22.519304724180355     
   22.158215353193096     
   20.723535729386484     
   21.605350985543105     
   21.966672642934476     
   21.674632942762472     
   21.524280833881296     
   20.787842826978739     
   20.933129574460388     
   21.303736977795218     
   21.184880589384299     
   21.009796272030421     
   20.318947336146870     
   20.736822151979300     
   20.913915383645477     
   20.774282928206929     
   20.699839207691152     
   20.354304209965242     
   20.416764275394428     
   20.593960676497289     