# vtk DataFile Version 2.0
 temperature
 ASCII
 DATASET UNSTRUCTURED_GRID
 POINTS         773  double
   0.0000000000000000        0.0000000000000000        0.0000000000000000     
   3.5000000000000000        0.0000000000000000        0.0000000000000000     
   3.5000000000000000        40.000000000000000        0.0000000000000000     
   0.0000000000000000        40.000000000000000        0.0000000000000000     
  0.43750000000000000        0.0000000000000000        0.0000000000000000     
  0.87500000000000000        0.0000000000000000        0.0000000000000000     
   1.3125000000000000        0.0000000000000000        0.0000000000000000     
   1.7500000000000000        0.0000000000000000        0.0000000000000000     
   2.1875000000000000        0.0000000000000000        0.0000000000000000     
   2.6250000000000000        0.0000000000000000        0.0000000000000000     
   3.0625000000000000        0.0000000000000000        0.0000000000000000     
   3.5000000000000000       0.50000000000000000        0.0000000000000000     
   3.5000000000000000        1.0000000000000000        0.0000000000000000     
   3.5000000000000000        1.5000000000000000        0.0000000000000000     
   3.5000000000000000        2.0000000000000000        0.0000000000000000     
   3.5000000000000000        2.5000000000000000        0.0000000000000000     
   3.5000000000000000        3.0000000000000000        0.0000000000000000     
   3.5000000000000000        3.5000000000000000        0.0000000000000000     
   3.5000000000000000        4.0000000000000000        0.0000000000000000     
   3.5000000000000000        4.5000000000000000        0.0000000000000000     
   3.5000000000000000        5.0000000000000000        0.0000000000000000     
   3.5000000000000000        5.5000000000000000        0.0000000000000000     
   3.5000000000000000        6.0000000000000000        0.0000000000000000     
   3.5000000000000000        6.5000000000000000        0.0000000000000000     
   3.5000000000000000        7.0000000000000000        0.0000000000000000     
   3.5000000000000000        7.5000000000000000        0.0000000000000000     
   3.5000000000000000        8.0000000000000000        0.0000000000000000     
   3.5000000000000000        8.5000000000000000        0.0000000000000000     
   3.5000000000000000        9.0000000000000000        0.0000000000000000     
   3.5000000000000000        9.5000000000000000        0.0000000000000000     
   3.5000000000000000        10.000000000000000        0.0000000000000000     
   3.5000000000000000        10.500000000000000        0.0000000000000000     
   3.5000000000000000        11.000000000000000        0.0000000000000000     
   3.5000000000000000        11.500000000000000        0.0000000000000000     
   3.5000000000000000        12.000000000000000        0.0000000000000000     
   3.5000000000000000        12.500000000000000        0.0000000000000000     
   3.5000000000000000        13.000000000000000        0.0000000000000000     
   3.5000000000000000        13.500000000000000        0.0000000000000000     
   3.5000000000000000        14.000000000000000        0.0000000000000000     
   3.5000000000000000        14.500000000000000        0.0000000000000000     
   3.5000000000000000        15.000000000000000        0.0000000000000000     
   3.5000000000000000        15.500000000000000        0.0000000000000000     
   3.5000000000000000        16.000000000000000        0.0000000000000000     
   3.5000000000000000        16.500000000000000        0.0000000000000000     
   3.5000000000000000        17.000000000000000        0.0000000000000000     
   3.5000000000000000        17.500000000000000        0.0000000000000000     
   3.5000000000000000        18.000000000000000        0.0000000000000000     
   3.5000000000000000        18.500000000000000        0.0000000000000000     
   3.5000000000000000        19.000000000000000        0.0000000000000000     
   3.5000000000000000        19.500000000000000        0.0000000000000000     
   3.5000000000000000        20.000000000000000        0.0000000000000000     
   3.5000000000000000        20.500000000000000        0.0000000000000000     
   3.5000000000000000        21.000000000000000        0.0000000000000000     
   3.5000000000000000        21.500000000000000        0.0000000000000000     
   3.5000000000000000        22.000000000000000        0.0000000000000000     
   3.5000000000000000        22.500000000000000        0.0000000000000000     
   3.5000000000000000        23.000000000000000        0.0000000000000000     
   3.5000000000000000        23.500000000000000        0.0000000000000000     
   3.5000000000000000        24.000000000000000        0.0000000000000000     
   3.5000000000000000        24.500000000000000        0.0000000000000000     
   3.5000000000000000        25.000000000000000        0.0000000000000000     
   3.5000000000000000        25.500000000000000        0.0000000000000000     
   3.5000000000000000        26.000000000000000        0.0000000000000000     
   3.5000000000000000        26.500000000000000        0.0000000000000000     
   3.5000000000000000        27.000000000000000        0.0000000000000000     
   3.5000000000000000        27.500000000000000        0.0000000000000000     
   3.5000000000000000        28.000000000000000        0.0000000000000000     
   3.5000000000000000        28.500000000000000        0.0000000000000000     
   3.5000000000000000        29.000000000000000        0.0000000000000000     
   3.5000000000000000        29.500000000000000        0.0000000000000000     
   3.5000000000000000        30.000000000000000        0.0000000000000000     
   3.5000000000000000        30.500000000000000        0.0000000000000000     
   3.5000000000000000        31.000000000000000        0.0000000000000000     
   3.5000000000000000        31.500000000000000        0.0000000000000000     
   3.5000000000000000        32.000000000000000        0.0000000000000000     
   3.5000000000000000        32.500000000000000        0.0000000000000000     
   3.5000000000000000        33.000000000000000        0.0000000000000000     
   3.5000000000000000        33.500000000000000        0.0000000000000000     
   3.5000000000000000        34.000000000000000        0.0000000000000000     
   3.5000000000000000        34.500000000000000        0.0000000000000000     
   3.5000000000000000        35.000000000000000        0.0000000000000000     
   3.5000000000000000        35.500000000000000        0.0000000000000000     
   3.5000000000000000        36.000000000000000        0.0000000000000000     
   3.5000000000000000        36.500000000000000        0.0000000000000000     
   3.5000000000000000        37.000000000000000        0.0000000000000000     
   3.5000000000000000        37.500000000000000        0.0000000000000000     
   3.5000000000000000        38.000000000000000        0.0000000000000000     
   3.5000000000000000        38.500000000000000        0.0000000000000000     
   3.5000000000000000        39.000000000000000        0.0000000000000000     
   3.5000000000000000        39.500000000000000        0.0000000000000000     
   3.0625000000000000        40.000000000000000        0.0000000000000000     
   2.6250000000000000        40.000000000000000        0.0000000000000000     
   2.1875000000000000        40.000000000000000        0.0000000000000000     
   1.7500000000000000        40.000000000000000        0.0000000000000000     
   1.3125000000000000        40.000000000000000        0.0000000000000000     
  0.87500000000000000        40.000000000000000        0.0000000000000000     
  0.43750000000000000        40.000000000000000        0.0000000000000000     
   0.0000000000000000        39.500000000000000        0.0000000000000000     
   0.0000000000000000        39.000000000000000        0.0000000000000000     
   0.0000000000000000        38.500000000000000        0.0000000000000000     
   0.0000000000000000        38.000000000000000        0.0000000000000000     
   0.0000000000000000        37.500000000000000        0.0000000000000000     
   0.0000000000000000        37.000000000000000        0.0000000000000000     
   0.0000000000000000        36.500000000000000        0.0000000000000000     
   0.0000000000000000        36.000000000000000        0.0000000000000000     
   0.0000000000000000        35.500000000000000        0.0000000000000000     
   0.0000000000000000        35.000000000000000        0.0000000000000000     
   0.0000000000000000        34.500000000000000        0.0000000000000000     
   0.0000000000000000        34.000000000000000        0.0000000000000000     
   0.0000000000000000        33.500000000000000        0.0000000000000000     
   0.0000000000000000        33.000000000000000        0.0000000000000000     
   0.0000000000000000        32.500000000000000        0.0000000000000000     
   0.0000000000000000        32.000000000000000        0.0000000000000000     
   0.0000000000000000        31.500000000000000        0.0000000000000000     
   0.0000000000000000        31.000000000000000        0.0000000000000000     
   0.0000000000000000        30.500000000000000        0.0000000000000000     
   0.0000000000000000        30.000000000000000        0.0000000000000000     
   0.0000000000000000        29.500000000000000        0.0000000000000000     
   0.0000000000000000        29.000000000000000        0.0000000000000000     
   0.0000000000000000        28.500000000000000        0.0000000000000000     
   0.0000000000000000        28.000000000000000        0.0000000000000000     
   0.0000000000000000        27.500000000000000        0.0000000000000000     
   0.0000000000000000        27.000000000000000        0.0000000000000000     
   0.0000000000000000        26.500000000000000        0.0000000000000000     
   0.0000000000000000        26.000000000000000        0.0000000000000000     
[...]
 CELL_DATA        1368
 SCALARS T double
 LOOKUP_TABLE default
   20.866275444188087     
   25.228348737015875     
   1676.6519617073320     
   44.671403992338021     
   20.000000812015344     
   21.705751068413580     
   1279.7202061588575     
   21.573565367474174     
   20.112728387383687     
   21.311983816696454     
   20.176427470879517     
   38.607629423587326     
   21.249232407187009     
   46.943506296251684     
   39.897021013266588     
   1212.6675756633192     
   1677.8099082467922     
   20.365105273412116     
   20.330969871598324     
   22.614287811899771     
   20.274084689520375     
   20.018399958894697     
   1737.3783003984563     
   20.030336858708278     
   20.740157051753638     
   25.160681467097593     
   20.252089657212373     
   21.991540611292177     
   20.989647902328418     
   20.131187166351712     
   22.573789027117886     
   20.000001448277310     
   24.570781615328634     
   25.592136130982013     
   25.476177138081546     
   20.000001225057328     
   20.573356263838846     
   20.066081504882256     
   20.204955757860162     
   20.059186473208285     
   20.043197858819358     
   21.219048425941832     
   20.048032517372608     
   45.732518141606185     
   20.432022238811843     
   441.29948837255904     
   433.48814282481169     
   21.056404028508513     
   21.362407046032548     
   697.96868427683512     
   702.75123209624803     
   20.147521828992083     
   20.570579880130030     
   20.000001150271942     
   1708.9208059168063     
   20.000001001603081     
   20.000002741338665     
   20.017101103175722     
   20.009644433065237     
   20.022048291916903     
   20.000003519809866     
   44.112094075008422     
   20.035276591182527     
   20.000006860123982     
   22.260519858135147     
   22.829034656497623     
   20.106151048411128     
   22.712896223585506     
   20.210222158591904     
   20.278045102874753     
   20.000002271950617     
   1677.2825571564365     
   20.000004282535460     
   20.250650123384222     
   20.078678015523984     
   20.108189903358710     
   20.000010034680173     
   20.000024526808769     
   20.000001854634032     
   417.29388891808907     
   20.024933198688561     
   20.008738744872254     
   256.10345121721792     
   20.005164700764414     
   159.81913777263497     
   20.487870268984679     
   20.631106825685876     
   413.36994389862059     
   20.014187940134800     
   861.83541433275263     
   20.035290704717134     
   20.048416744092233     
   65.899914165154826     
   20.000083736659086     
   805.66615778697224     
   20.002202357476580     
   45.245023567609216     
   20.000035241808270     
   20.002612509144345     
   20.000012853342739     
   254.37019900425759     
   20.000008342860347     
   218.83966579431299     
   222.19339077169116     
   20.043229401264149     
   20.011948577751642     
   20.000001803656666     
   20.103015913103459     
   20.000001511326829     
   20.000015301633539     
   28.590042507432919     
   526.88031817796798     
   27.651479100132786     
   20.001247526851728     
   20.000005522502079     
   20.000000814842327     
   138.54115040037229     
   23.834138915837023     
   140.41277920229919     
   20.000557796004841     
   20.000008404231167     
   20.001119186007266     
   20.008693673804974     
   158.77240852923606     
   21.855718026551880     
   314.85494972015880     
   20.089385956189382     
   20.117508352992829     
   20.006417874421519     
   20.620544001275579     
   20.000002287087405     
   20.001542481065687     
   537.52631427914707     
   20.859467125010461     
   20.000029562173459     
   20.000118978353054     
   20.380633789238953     
   89.794474909286038     
   1321.4304903862098     
   91.017307367518455     
   1009.2125770722787     
   484.64416320664395     
   196.02257667361735     
   20.001780832145482     
   20.004549150097958     
   20.000427326934641     
   507.53315396479087     
   20.003213859002248     
   20.000019893081962     
   20.000029828673451     
   20.000545724904448     
   318.95373270475608     
   20.004404476975157     
   60.082275761360414     
   60.668916346193591     
   20.000044730718258     
   20.000370450311831     
   122.87462808123564     
   20.006888369863852     
   20.000099765689416     
   20.000053045024341     
   20.000005389096014     
   40.364356110471924     
   65.484835320968756     
   20.016626458758367     
   22.168069059910575     
   20.000100959121614     
   20.000000752717568     
   248.33200884762573     
   198.48348398716149     
   20.000891564920888     
   20.000239738558378     
   20.000068073277209     
   45.029208664797650     
   52.883613381594948     
   20.000287269481596     
   1014.1045395953702     
   20.478188201367548     
   124.02934051621813     
   20.000149711476364     
   166.84476537045978     
   158.35919915827458     
   37.791702384791506     
   20.000175347049606     
   34.905443447940613     
   20.000539361426664     
   20.007081258821749     
   20.009929033637267     
   59.600707627159451     
   20.000001739864601     
   263.76934485884215     
   20.088141142006712     
   26.386367812321456     
   26.376122669668895     
   29.996583582056584     
   20.000000908243273     
   582.69422183786662     
   20.000604129320106     
   20.000001546557606     
   20.000221860948820     
   27.490603933540406     
   20.000326485597903     
   106.91416235101643     
   20.003592480832165     
   20.005054244639112     
   20.001166620762195     
   101.65629242160202     
   23.988821461329945     
   20.000258177896999     
   20.000001839715168     
   20.000379823496640     
   20.000003257388670     
   25.068589352872376     
   20.000000795457396     
   20.001359770280374     
   20.000162791052567     
   20.002385238982772     
   20.003658639535089     
   20.116623219844147     
   20.000475682508576     
   23.751563796994720     
   20.000002106725205     
   20.006252365586779     
   57.356790316679003     
   20.002530945720455     
   53.405714611471069     
   20.002783123319919     
   20.000110207712396     
   20.000001212165817     
   20.000131131529898     
   20.000743856362373     
   20.000002689988769     
   21.814941713092804     
   20.000019405559744     
   22.489056421565852     
   20.000088808525444     
   20.006764473296251     
   20.000001342637397     
   20.840226591195208     
   20.007834777047712     
   33.189635392317982     
   38.035726282800418     
   330.27962389220500     
   20.932272654424224     
   54.365725334975451     
   70.340033740894739     
   1435.1997425878076     
   67.196591566773094     
   20.371746741078233     
   20.000074192906872     
   20.000033103365777     
   20.018379757048979     
   20.000804770731474     
   21.174327215720801     
   1516.9975867480334     
   20.000026341553500     
   20.000059668631774     
   20.000192488783796     
   20.021115161479866     
   20.000939030714630     
   20.000002949870129     
   743.33054181413740     
   573.89918535960453     
   20.047732202076737     
   20.010091554771339     
   20.002280735902961     
   20.531391738382851     
   20.000003130477420     
   20.054442570617219     
   1460.5209984445455     
   30.263355893046757     
   20.187182892454231     
   20.000646258738850     
   20.000776994931272     
   20.000535347739334     
   20.000003121361157     
   20.118654264928296     
   20.000002836994192     
   1383.4405987532652     
   1189.1709435589489     
   20.000000606281670     
   1253.5465893965122     
   20.000003363193052     
   20.134361295569594     
   1368.1414301382263     
   20.008978595106957     
   31.468101956716211     
   869.16108456494067     
   1391.0356080443735     
   20.000010293488536     
   25.226558018414096     
   20.000001216391446     
   20.000049830903077     
   20.000596627358455     
   20.000870056761705     
   20.000021929251350     
   20.000001707986740     
   20.000011365272247     
   20.000001406693432     
   922.35988578739511     
   22.569005784258138     
   20.000039671361613     
   660.41340555262411     
   20.000001233521605     
   20.000017311725323     
   21.213303019897406     
   20.549306476156378     
   20.000000782971888     
   20.000001116782091     
   1178.0852514981134     
   20.000002192419899     
   1290.4608382985691     
   1071.7675947422433     
   20.000777516034770     
   20.000620567156602     
   1480.0453097279719     
   30.901868428306589     
   334.55187508770598     
   20.031633271587751     
   20.000001648882250     
   20.000000921823457     
   20.000003545909369     
   781.43172322536884     
   20.000293704577132     
   20.000002346839707     
   20.000066822159802     
   20.000253713445492     
   20.004803230587271     
   1319.7982160220397     
   764.34393669784674     
   20.000001422680302     
   20.000002886546486     
   50.610135494448947     
   1201.5240713607209     
   20.000280264783211     
   20.000004830144807     
   1213.7201560788467     
   1290.7648752930543     
   20.005531570839988     
   20.001674711955694     
   1008.6206729406167     
   20.000002454536251     
   20.000010588882137     
   20.000006214083555     
   20.000006916583512     
   913.60660157919176     
   20.001943350738209     
   20.000009484363837     
   20.000012095840333     
   30.582989447398813     
   27.747758509228436     
   20.000005197045244     
   20.000001905887558     
   20.007228559523565     
   20.000004452789465     
   1142.1885619186094     
   20.000007928102228     
   1039.7648816783062     
   20.000004397777847     
   861.28366012691708     
   20.000001846858865     
   976.15680362964929     
   779.61305703573976     
   1033.4286237895544     
   1208.5463668889240     
   1037.4244951296621     
   20.000004136819928     
   20.000002034224195     
   20.000003396610669     
   873.12931376738800     
   841.07311075380755     
   763.50778467800490     
   735.88690228083590     
   1120.0523596286039     
   664.31921269616453     
   20.000254480219539     
   20.000004522501154     
   20.000015700758382     
   20.000014531484062     
   1233.0973976351163     
   890.25953465142584     
   893.67644139328343     
   967.33360906715041     
   630.55943218486630     
   722.01386985025363     
   20.000016148684992     
   20.000012890064870     
   20.000041619253810     
   563.40820297452456     
   832.67076039019241     
   561.18893093218730     
   20.000018339075066     
   20.000061345529705     
   20.000080898443812     
   629.93480823629204     
   472.03460113307943     
   766.15587784070283     
   20.000036401415198     
   613.42181129968128     
   651.91879817098720     
   20.000016026965689     
   20.000053879322280     
   661.38036345526098     
   20.000119654172497     
   20.000054131853354     
   538.61522054297905     
   20.000091144083751     
   20.000055960778468     
   20.000045065539819     
   20.000136897668806     
   565.42739540148943     
   458.60496069089453     
   481.78013520666349     
   20.000018327138704     
   389.84128718112498     
   411.17961909586239     
   20.000273282956901     
   20.000331294861063     
   20.000024330963683     
   20.000322907972894     
   714.89646019294139     
   20.000695162038941     
   20.000823006099480     
   20.001010198649823     
   20.000379728536078     
   300.18971491132157     
   20.000585645032928     
   20.000482780045377     
   404.81031805761108     
   20.001021793339884     
   20.000703341024604     
   20.000027482450850     
   20.001283946649334     
   20.001114849380812     
   20.000867585163800     
   20.002081893728743     
   20.000850526131742     
   20.004210456817070     
   20.004927801562740     
   20.011854184681432     
   20.008435233552440     
   20.007153861619333     
   20.010023622289420     
   20.016262472785286     
   20.042506570192725     
   20.019397417089820     
   20.016421573287268     
   20.031458309438953     
   20.022787378970776     
   20.106354841575058     
   20.050311293270109     
   20.042913526620747     
   20.079879145596824     
   20.058680398790376     
   20.056654107732282     
   20.026778271807981     
   20.076437540304369     
   20.061089929865446     
   20.045571870105405     
   20.041721594812923     
   20.254060477613312     
   20.124925919825667     
   20.107347959029202     
   20.194232728703689     
   20.144673661000677     
   20.068451216222059     
   392.97146817250757     
   20.583296653724712     
   20.297297018858686     
   20.256916707416611     
   20.450787673386486     
   20.340377547528909     
   20.167550068195649     
   20.419267435481473     
   20.332531305044970     
   20.236154529323702     
   20.312224976065515     
   21.283904618147485     
   20.677210030519856     
   20.589595855258469     
   21.005800325994858     
   20.771829817549726     
   20.393016722664640     
   20.255666414569795     
   22.714542654390087     
   21.479786718342886     
   21.297392493912128     
   22.153738942247710     
   21.675427498968887     
   20.882619187814623     
   21.880686823265144     
   21.535526021563779     
   21.131688539053460     
   21.456456638219770     
   25.519018944176761     
   23.106396629104825     
   22.742067179045609     
   24.436953446483134     
   23.489277059988488     
   21.902710446012701     
   243.09557122608439     
   278.49813715904992     
   253.75421695598078     
   21.208804332058900     
   26.987141223930369     
   136.64432664650403     
   295.02365452710802     
   149.00848041154507     
   135.06104121724880     
   152.29404590008485     
   30.807806246992183     
   275.29053534802819     
   243.89806199201161     
   295.50394093533203     
   26.273174189313828     
   25.573298782418881     
   76.174926706562403     
   237.94139919731836     
   128.03044114906285     
   71.699332300210685     
   152.49574251696171     
   23.942597493095889     
   115.89625788208637     
   239.94697442730646     
   27.879842019541300     
   28.802190062741538     
   328.47534858972477     
   204.55292176005679     
   183.90625173553809     
   130.08409095461892     
   43.977418925806525     
   109.79825261608984     
   36.651567864902397     
   35.221498026713419     
   84.010192665994694     
   45.276495809909250     
   334.70710635654024     
   32.196378867482046     
   30.908148835187742     
   251.98048980206141     
   36.503187550469242     
   242.17625655561434     
   86.458162415416808     
   159.24410239365778     
   43.749081554690335     
   177.16679744403868     
   177.04632319257340     
   173.85877750367175     
   236.29769159414445     
   33.457296453163323     
   157.84240905690785     
   100.74424536024590     
   100.13331635266034     
   299.74380502885055     
   96.756104573885366     
   332.87973053626575     
   64.877903615050514     
   72.780305425224469     
   83.410044999855586     
   215.58543417616701     
   346.42741159552492     
   49.257155146402660     
   187.30255086573362     
   272.51662412248163     
   20.001764840138410     
   76.173746521908299     
   81.599257659821831     
   318.21755486813305     
   20.004472247319196     
   20.002258148690476     
   65.373284497317186     
   35.111772292574095     
   87.919453685165777     
   137.43768066290045     
   442.97507125801798     
   320.85412072455438     
   235.06962884501368     
   267.09700203864298     
   147.70840969808160     
   95.982223503308546     
   64.319542096226456     
   45.276286064436619     
   34.043897059206131     
   27.505717379774989     
   23.912088571801249     
   21.953694139226162     
   20.944226872241959     
   20.436731578292733     
   20.194007579236683     
   20.081482825895034     
   20.033788990418014     
   20.013076413938023     
   20.004928983198017     
   20.003518339960110     
   20.002492325426417     
   20.003184674049042     
   20.001237207582875     
   20.001591333698620     
   20.000418918033048     
   20.000134494241120     
   20.000041196095005     
   20.000012104850533     
   20.002109936987924     
   20.000010595509533     
   20.000037303673530     
   20.000125240533283     
   20.000402577884383     
   20.001232064450182     
   20.002529671328883     
   20.003588604053803     
   20.003010156409758     
   20.005080665328968     
   20.004274412372062     
   20.014024019524630     
   20.036905539637200     
   20.092959550435232     
   20.224305398336394     
   20.518365981179677     
   21.148145209690462     
   22.441964706601592     
   24.993498048922753     
   29.833460108714956     
   38.691898305495187     
   54.414624766036340     
   81.615994977003638     
   94.365768914544887     
   87.273965013556676     
   109.66583927826871     
   127.46312309356634     
   203.26163711544390     
   326.39038063541597     
   523.61175619694563     
   94.479191140156104     
   207.24875467129496     
   218.50155585498217     
   151.95129338154692     
   20.001472808672272     
   109.59249780530506     
   283.78931858039300     
   62.945563281465212     
   117.89621081240561     
   48.312473207727145     
   20.001764049963974     
   54.721557517837887     
   101.51960167568606     
   256.31748933277333     
   66.219326063585342     
   350.72476160719890     
   45.003271594679482     
   72.593262139662727     
   160.26387915876603     
   117.02418820473615     
   58.583511371946841     
   111.80003902539617     
   49.625151037200624     
   51.477870004378069     
   45.873840034574407     
   63.328167875767669     
   55.703957297579521     
   130.60901223313559     
   283.59323823809501     
   172.41882641249720     
   117.33430899607859     
   50.631615651701289     
   36.117129251444830     
   62.043586589887937     
   111.96800635994354     
   74.935712874160615     
   57.347301338130521     
   71.060872211032432     
   40.387658172158453     
   96.491081196646761     
   43.119896000598253     
   43.817987033618060     
   37.014436105541506     
   41.001863552997989     
   39.552439099574343     
   148.81996132317479     
   43.994603514222668     
   151.05563492745296     
   33.402562625481202     
   38.917320347553954     
   95.348084399974468     
   35.816789945660311     
   26.726966407675864     
   33.539427258806576     
   97.045755196180906     
   87.470964579625971     
   101.12380148789865     
   32.694856249515112     
   28.410744176623979     
   184.92078745352532     
   27.167603222602338     
   216.26849254759833     
   31.084218112151557     
   30.360991885058809     
   23.377368482938984     
   27.171964724093431     
   28.909503803720249     
   207.39657107821020     
   26.747064749760440     
   28.287687085656113     
   26.937690201986090     
   27.161053949636550     
   23.627785508104115     
   26.601539305655304     
   24.228352392166492     
   25.730548323648534     
   25.280073143414821     
   24.566361158184943     
   21.615843495460442     
   23.468654097967789     
   24.190278925193670     
   23.601605585824434     
   23.300193321674996     
   21.766131554593862     
   22.054957097053776     
   22.844157355413259     
   22.604996666695836     
   22.234233394842793     
   20.756478520631156     
   21.667842679231171     
   22.038351605860750     
   21.737801309000147     
   21.583627748061389     
   20.822719531830135     
   20.973158999133680     
   21.356185954876256     
   21.234051568428839     
   21.053050762581165     
   20.336252769646475     
   20.771423191653810     
   20.954315406058523     
   20.809593855226147     
   20.732706300839208     
   20.372978096236189     
   20.438161750924664     
   20.622708621382259     