# vtk DataFile Version 2.0
 temperature
 ASCII
 DATASET UNSTRUCTURED_GRID
 POINTS         773  double
   0.0000000000000000        0.0000000000000000        0.0000000000000000     
   3.5000000000000000        0.0000000000000000        0.0000000000000000     
   3.5000000000000000        40.000000000000000        0.0000000000000000     
   0.0000000000000000        40.000000000000000        0.0000000000000000     
  0.43750000000000000        0.0000000000000000        0.0000000000000000     
  0.87500000000000000        0.0000000000000000        0.0000000000000000     
   1.3125000000000000        0.0000000000000000        0.0000000000000000     
   1.7500000000000000        0.0000000000000000        0.0000000000000000     
   2.1875000000000000        0.0000000000000000        0.0000000000000000     
   2.6250000000000000        0.0000000000000000        0.0000000000000000     
   3.0625000000000000        0.0000000000000000        0.0000000000000000     
   3.5000000000000000       0.50000000000000000        0.0000000000000000     
   3.5000000000000000        1.0000000000000000        0.0000000000000000     
   3.5000000000000000        1.5000000000000000        0.0000000000000000     
   3.5000000000000000        2.0000000000000000        0.0000000000000000     
   3.5000000000000000        2.5000000000000000        0.0000000000000000     
   3.5000000000000000        3.0000000000000000        0.0000000000000000     
   3.5000000000000000        3.5000000000000000        0.0000000000000000     
   3.5000000000000000        4.0000000000000000        0.0000000000000000     
   3.5000000000000000        4.5000000000000000        0.0000000000000000     
   3.5000000000000000        5.0000000000000000        0.0000000000000000     
   3.5000000000000000        5.5000000000000000        0.0000000000000000     
   3.5000000000000000        6.0000000000000000        0.0000000000000000     
   3.5000000000000000        6.5000000000000000        0.0000000000000000     
   3.5000000000000000        7.0000000000000000        0.0000000000000000     
   3.5000000000000000        7.5000000000000000        0.0000000000000000     
   3.5000000000000000        8.0000000000000000        0.0000000000000000     
   3.5000000000000000        8.5000000000000000        0.0000000000000000     
   3.5000000000000000        9.0000000000000000        0.0000000000000000     
   3.5000000000000000        9.5000000000000000        0.0000000000000000     
   3.5000000000000000        10.000000000000000        0.0000000000000000     
   3.5000000000000000        10.500000000000000        0.0000000000000000     
   3.5000000000000000        11.000000000000000        0.0000000000000000     
   3.5000000000000000        11.500000000000000        0.0000000000000000     
   3.5000000000000000        12.000000000000000        0.0000000000000000     
   3.5000000000000000        12.500000000000000        0.0000000000000000     
   3.5000000000000000        13.000000000000000        0.0000000000000000     
   3.5000000000000000        13.500000000000000        0.0000000000000000     
   3.5000000000000000        14.000000000000000        0.0000000000000000     
   3.5000000000000000        14.500000000000000        0.0000000000000000     
   3.5000000000000000        15.000000000000000        0.0000000000000000     
   3.5000000000000000        15.500000000000000        0.0000000000000000     
   3.5000000000000000        16.000000000000000        0.0000000000000000     
   3.5000000000000000        16.500000000000000        0.0000000000000000     
   3.5000000000000000        17.000000000000000        0.0000000000000000     
   3.5000000000000000        17.500000000000000        0.0000000000000000     
   3.5000000000000000        18.000000000000000        0.0000000000000000     
   3.5000000000000000        18.500000000000000        0.0000000000000000     
   3.5000000000000000        19.000000000000000        0.0000000000000000     
   3.5000000000000000        19.500000000000000        0.0000000000000000     
   3.5000000000000000        20.000000000000000        0.0000000000000000     
   3.5000000000000000        20.500000000000000        0.0000000000000000     
   3.5000000000000000        21.000000000000000        0.0000000000000000     
   3.5000000000000000        21.500000000000000        0.0000000000000000     
   3.5000000000000000        22.000000000000000        0.0000000000000000     
   3.5000000000000000        22.500000000000000        0.0000000000000000     
   3.5000000000000000        23.000000000000000        0.0000000000000000     
   3.5000000000000000        23.500000000000000        0.0000000000000000     
   3.5000000000000000        24.000000000000000        0.0000000000000000     
   3.5000000000000000        24.500000000000000        0.0000000000000000     
   3.5000000000000000        25.000000000000000        0.0000000000000000     
   3.5000000000000000        25.500000000000000        0.0000000000000000     
   3.5000000000000000        26.000000000000000        0.0000000000000000     
   3.5000000000000000        26.500000000000000        0.0000000000000000     
   3.5000000000000000        27.000000000000000        0.0000000000000000     
   3.5000000000000000        27.500000000000000        0.0000000000000000     
   3.5000000000000000        28.000000000000000        0.0000000000000000     
   3.5000000000000000        28.500000000000000        0.0000000000000000     
   3.5000000000000000        29.000000000000000        0.0000000000000000     
   3.5000000000000000        29.500000000000000        0.0000000000000000     
   3.5000000000000000        30.000000000000000        0.0000000000000000     
   3.5000000000000000        30.500000000000000        0.0000000000000000     
   3.5000000000000000        31.000000000000000        0.0000000000000000     
   3.5000000000000000        31.500000000000000        0.0000000000000000     
   3.5000000000000000        32.000000000000000        0.0000000000000000     
   3.5000000000000000        32.500000000000000        0.0000000000000000     
   3.5000000000000000        33.000000000000000        0.0000000000000000     
   3.5000000000000000        33.500000000000000        0.0000000000000000     
   3.5000000000000000        34.000000000000000        0.0000000000000000     
   3.5000000000000000        34.500000000000000        0.0000000000000000     
   3.5000000000000000        35.000000000000000        0.0000000000000000     
   3.5000000000000000        35.500000000000000        0.0000000000000000     
   3.5000000000000000        36.000000000000000        0.0000000000000000     
   3.5000000000000000        36.500000000000000        0.0000000000000000     
   3.5000000000000000        37.000000000000000        0.0000000000000000     
   3.5000000000000000        37.500000000000000        0.0000000000000000     
   3.5000000000000000        38.000000000000000        0.0000000000000000     
   3.5000000000000000        38.500000000000000        0.0000000000000000     
   3.5000000000000000        39.000000000000000        0.0000000000000000     
   3.5000000000000000        39.500000000000000        0.0000000000000000     
   3.0625000000000000        40.000000000000000        0.0000000000000000     
   2.6250000000000000        40.000000000000000        0.0000000000000000     
   2.1875000000000000        40.000000000000000        0.0000000000000000     
   1.7500000000000000        40.000000000000000        0.0000000000000000     
   1.3125000000000000        40.000000000000000        0.0000000000000000     
  0.87500000000000000        40.000000000000000        0.0000000000000000     
  0.43750000000000000        40.000000000000000        0.0000000000000000     
   0.0000000000000000        39.500000000000000        0.0000000000000000     
   0.0000000000000000        39.000000000000000        0.0000000000000000     
   0.0000000000000000        38.500000000000000        0.0000000000000000     
   0.0000000000000000        38.000000000000000        0.0000000000000000     
   0.0000000000000000        37.500000000000000        0.0000000000000000     
   0.0000000000000000        37.000000000000000        0.0000000000000000     
   0.0000000000000000        36.500000000000000        0.0000000000000000     
   0.0000000000000000        36.000000000000000        0.0000000000000000     
   0.0000000000000000        35.500000000000000        0.0000000000000000     
   0.0000000000000000        35.000000000000000        0.0000000000000000     
   0.0000000000000000        34.500000000000000        0.0000000000000000     
   0.0000000000000000        34.000000000000000        0.0000000000000000     
   0.0000000000000000        33.500000000000000        0.0000000000000000     
   0.0000000000000000        33.000000000000000        0.0000000000000000     
   0.0000000000000000        32.500000000000000        0.0000000000000000     
   0.0000000000000000        32.000000000000000        0.0000000000000000     
   0.0000000000000000        31.500000000000000        0.0000000000000000     
   0.0000000000000000        31.000000000000000        0.0000000000000000     
   0.0000000000000000        30.500000000000000        0.0000000000000000     
   0.0000000000000000        30.000000000000000        0.0000000000000000     
   0.0000000000000000        29.500000000000000        0.0000000000000000     
   0.0000000000000000        29.000000000000000        0.0000000000000000     
   0.0000000000000000        28.500000000000000        0.0000000000000000     
   0.0000000000000000        28.000000000000000        0.0000000000000000     
   0.0000000000000000        27.500000000000000        0.0000000000000000     
   0.0000000000000000        27.000000000000000        0.0000000000000000     
   0.0000000000000000        26.500000000000000        0.0000000000000000     
   0.0000000000000000        26.000000000000000        0.0000000000000000     
[...]
 CELL_DATA        1368
 SCALARS T double
 LOOKUP_TABLE default
   20.000000000000000     
   20.000000000383956     
   1453.5013019470914     
   20.000111469618943     
   20.000000000000000     
   20.000000000000444     
   1084.9551954102083     
   20.000000000000220     
   20.000000000000000     
   20.000000000000114     
   20.000000000000000     
   20.000005882296097     
   20.000000000000000     
   20.000113001985554     
   20.000010155916730     
   1014.8207431525000     
   1449.6200142722907     
   20.000000000000000     
   20.000000000000000     
   20.000000000002583     
   20.000000000000000     
   20.000000000000000     
   1560.0045760590392     
   20.000000000000000     
   20.000000000000000     
   20.000000000911729     
   20.000000000000000     
   20.000000000000988     
   20.000000000000000     
   20.000000000000000     
   20.000000000006317     
   20.000000000000000     
   20.000000000176492     
   20.000000000772232     
   20.000000001693593     
   20.000000000000000     
   20.000000000000000     
   20.000000000000000     
   20.000000000000000     
   20.000000000000000     
   20.000000000000000     
   20.000000000000000     
   20.000000000000000     
   20.000045449861886     
   20.000000000000000     
   46.525165891336414     
   45.874328809957191     
   20.000000000000000     
   20.000000000000000     
   364.60130402719130     
   344.87745305830333     
   20.000000000000000     
   20.000000000000000     
   20.000000000000000     
   1558.1268014097866     
   20.000000000000000     
   20.000000000000000     
   20.000000000000000     
   20.000000000000000     
   20.000000000000000     
   20.000000000000000     
   20.000046887164874     
   20.000000000000000     
   20.000000000000000     
   20.000000000001108     
   20.000000000005784     
   20.000000000000000     
   20.000000000011340     
   20.000000000000000     
   20.000000000000000     
   20.000000000000000     
   1500.6348857667028     
   20.000000000000000     
   20.000000000000000     
   20.000000000000000     
   20.000000000000000     
   20.000000000000000     
   20.000000000000000     
   20.000000000000000     
   39.775456572501184     
   20.000000000000000     
   20.000000000000000     
   21.984705815638989     
   20.000000000000000     
   20.137047162032722     
   20.000000000000000     
   20.000000000000000     
   39.400871402357105     
   20.000000000000000     
   540.54753850602788     
   20.000000000000000     
   20.000000000000000     
   20.000186149055008     
   20.000000000000000     
   493.96516060315327     
   20.000000000000000     
   20.000003708261790     
   20.000000000000000     
   20.000000000000000     
   20.000000000000000     
   21.974610216095982     
   20.000000000000000     
   26.370179828507325     
   25.623168594778711     
   20.000000000000000     
   20.000000000000000     
   20.000000000000000     
   20.000000000000000     
   20.000000000000000     
   20.000000000000000     
   20.000000040165219     
   82.544578907699886     
   20.000000001064087     
   20.000000000000000     
   20.000000000000000     
   20.000000000000000     
   20.595659615292810     
   20.000000000007436     
   20.508493635169422     
   20.000000000000000     
   20.000000000000000     
   20.000000000000000     
   20.000000000000000     
   20.136533252117541     
   20.000000000000000     
   26.237215984070403     
   20.000000000000000     
   20.000000000000000     
   20.000000000000000     
   20.000000000000000     
   20.000000000000000     
   20.000000000000000     
   83.255205032608757     
   20.000000000000000     
   20.000000000000000     
   20.000000000000000     
   20.000000000000000     
   20.037616696050744     
   1097.6376210406920     
   20.030505926423952     
   752.68393931442802     
   146.51239740227436     
   20.532111258005241     
   20.000000000000000     
   20.000000000000000     
   20.000000000000000     
   156.99081864714699     
   20.000000000000000     
   20.000000000000000     
   20.000000000000000     
   20.000000000000000     
   26.280813567566721     
   20.000000000000000     
   20.001564460355453     
   20.001263263116197     
   20.000000000000000     
   20.000000000000000     
   20.029291726435975     
   20.000000000000000     
   20.000000000000000     
   20.000000000000000     
   20.000000000000000     
   20.000058724817940     
   20.000184894614993     
   20.000000000000000     
   20.000000000002647     
   20.000000000000000     
   20.000000000000000     
   31.018663042679496     
   20.534195926772750     
   20.000000000000000     
   20.000000000000000     
   20.000000000000000     
   20.000003695294101     
   20.000026483224822     
   20.000000000000000     
   734.23597901689857     
   20.000000000000000     
   20.028977890693234     
   20.000000000000000     
   21.378261010913718     
   21.209767253986989     
   20.000000434698794     
   20.000000000000000     
   20.000001162262841     
   20.000000000000000     
   20.000000000000000     
   20.000000000000000     
   20.000364294418318     
   20.000000000000000     
   32.507772343088000     
   20.000000000000000     
   20.000000008945964     
   20.000000007475030     
   20.000000011098528     
   20.000000000000000     
   221.07254291008255     
   20.000000000000000     
   20.000000000000000     
   20.000000000000000     
   20.000000001061185     
   20.000000000000000     
   20.097156580339018     
   20.000000000000000     
   20.000000000000000     
   20.000000000000000     
   20.083633578219317     
   20.000000000127301     
   20.000000000000000     
   20.000000000000000     
   20.000000000000000     
   20.000000000000000     
   20.000000000090441     
   20.000000000000000     
   20.000000000000000     
   20.000000000000000     
   20.000000000000000     
   20.000000000000000     
   20.000000000000000     
   20.000000000000000     
   20.000000000007372     
   20.000000000000000     
   20.000000000000000     
   20.000255575212609     
   20.000000000000000     
   20.000026617022275     
   20.000000000000000     
   20.000000000000000     
   20.000000000000000     
   20.000000000000000     
   20.000000000000000     
   20.000000000000000     
   20.000000000000000     
   20.000000000000000     
   20.000000000000512     
   20.000000000000000     
   20.000000000000000     
   20.000000000000000     
   20.000000000000000     
   20.000000000000000     
   20.000000538773548     
   20.000000427558199     
   39.693846803063835     
   20.000000000000000     
   20.000379121265304     
   20.004524754139865     
   1174.6579167547784     
   20.003829454341631     
   20.000000000000000     
   20.000000000000000     
   20.000000000000000     
   20.000000000000000     
   20.000000000000000     
   20.000000000000000     
   1217.4901754941102     
   20.000000000000000     
   20.000000000000000     
   20.000000000000000     
   20.000000000000000     
   20.000000000000000     
   20.000000000000000     
   279.87459089065931     
   234.41583036675479     
   20.000000000000000     
   20.000000000000000     
   20.000000000000000     
   20.000000000000000     
   20.000000000000000     
   20.000000000000000     
   1179.7303414474766     
   20.000000011011188     
   20.000000000000000     
   20.000000000000000     
   20.000000000000000     
   20.000000000000000     
   20.000000000000000     
   20.000000000000000     
   20.000000000000000     
   961.77369581844164     
   1071.4125849508516     
   20.000000000000000     
   879.08391370508105     
   20.000000000000000     
   20.000000000000000     
   1028.4809357175463     
   20.000000000000000     
   20.000000828643181     
   478.73491504271982     
   1035.4714144639593     
   20.000000000000000     
   20.000000000090708     
   20.000000000000000     
   20.000000000000000     
   20.000000000000000     
   20.000000000000000     
   20.000000000000000     
   20.000000000000000     
   20.000000000000000     
   20.000000000000000     
   498.77133971959341     
   20.000000000000501     
   20.000000000000000     
   218.44691591179108     
   20.000000000000000     
   20.000000000000000     
   20.000000000000000     
   20.000000000000000     
   20.000000000000000     
   20.000000000000000     
   755.34545505205301     
   20.000000000000000     
   989.42458663965874     
   629.72678260333964     
   20.000000000000000     
   20.000000000000000     
   1112.0424634597282     
   20.000000559906766     
   42.691905526095752     
   20.000000000000000     
   20.000000000000000     
   20.000000000000000     
   20.000000000000000     
   337.73598227131680     
   20.000000000000000     
   20.000000000000000     
   20.000000000000000     
   20.000000000000000     
   20.000000000000000     
   915.58857221332346     
   527.57869100890571     
   20.000000000000000     
   20.000000000000000     
   20.000174959577713     
   694.16391472012936     
   20.000000000000000     
   20.000000000000000     
   860.88224203784671     
   819.47834133697881     
   20.000000000000000     
   20.000000000000000     
   531.62021920329221     
   20.000000000000000     
   20.000000000000000     
   20.000000000000000     
   20.000000000000000     
   433.56476565077236     
   20.000000000000000     
   20.000000000000000     
   20.000000000000000     
   20.000000059402776     
   20.000000028861447     
   20.000000000000000     
   20.000000000000000     
   20.000000000000000     
   20.000000000000000     
   662.82776798268469     
   20.000000000000000     
   543.63257673380099     
   20.000000000000000     
   360.34759867477175     
   20.000000000000000     
   452.11995024909157     
   289.45103334190412     
   616.63592783643026     
   769.03323526051190     
   481.00434372438002     
   20.000000000000000     
   20.000000000000000     
   20.000000000000000     
   420.87832287342854     
   306.17557251645212     
   243.40427788320829     
   237.55798516664655     
   582.34463735010513     
   187.94875510376568     
   20.000000000000000     
   20.000000000000000     
   20.000000000000000     
   20.000000000000000     
   953.91216758840756     
   319.50565819181270     
   370.06589576387535     
   398.32510663358039     
   181.22841530444586     
   201.77514290371434     
   20.000000000000000     
   20.000000000000000     
   20.000000000000000     
   85.457801729209876     
   263.66519467339793     
   86.252137360251680     
   20.000000000000000     
   20.000000000000000     
   20.000000000000000     
   154.55893064048587     
   87.650664217662381     
   209.12895519602480     
   20.000000000000000     
   108.55904152620444     
   157.18589964871168     
   20.000000000000000     
   20.000000000000000     
   136.21741834350289     
   20.000000000000000     
   20.000000000000000     
   99.109731990399425     
   20.000000000000000     
   20.000000000000000     
   20.000000000000000     
   20.000000000000000     
   120.02322663597711     
   63.368695779906915     
   77.133196978824103     
   20.000000000000000     
   42.745575050448146     
   50.938012499505788     
   20.000000000000000     
   20.000000000000000     
   20.000000000000000     
   20.000000000000000     
   169.97159089409075     
   20.000000000000000     
   20.000000000000000     
   20.000000000000000     
   20.000000000000000     
   43.008356245959632     
   20.000000000000000     
   20.000000000000000     
   43.620142020818214     
   20.000000000000000     
   20.000000000000000     
   20.000000000000000     
   20.000000000000000     
   20.000000000000000     
   20.000000000000000     
   20.000000000000000     
   20.000000000000000     
   20.000000000000000     
   20.000000000000000     
   20.000000000000000     
   20.000000000000000     
   20.000000000000000     
   20.000000000000000     
   20.000000000000000     
   20.000000000000000     
   20.000000000000000     
   20.000000000000000     
   20.000000000000000     
   20.000000000000000     
   20.000000000000000     
   20.000000000000000     
   20.000000000000000     
   20.000000000000000     
   20.000000000000000     
   20.000000000000000     
   20.000000000000000     
   20.000000000000000     
   20.000000000000000     
   20.000000000000000     
   20.000000000000000     
   20.000000000000000     
   20.000000000000000     
   20.000000000000000     
   20.000000000000000     
   20.000000000000000     
   20.000000000000000     
   37.932047992038584     
   20.000000000000000     
   20.000000000000000     
   20.000000000000000     
   20.000000000000000     
   20.000000000000000     
   20.000000000000000     
   20.000000000000000     
   20.000000000000000     
   20.000000000000000     
   20.000000000000000     
   20.000000000000000     
   20.000000000000000     
   20.000000000000000     
   20.000000000000000     
   20.000000000000000     
   20.000000000000000     
   20.000000000000000     
   20.000000000000522     
   20.000000000000000     
   20.000000000000000     
   20.000000000000110     
   20.000000000000000     
   20.000000000000000     
   20.000000000002366     
   20.000000000000895     
   20.000000000000000     
   20.000000000000338     
   20.000000000095696     
   20.000000000001332     
   20.000000000000547     
   20.000000000018300     
   20.000000000003212     
   20.000000000000000     
   23.582246046498209     
   24.004178236946920     
   25.104863636050158     
   20.000000000000121     
   20.000000000477790     
   20.174290784624208     
   25.765217273423779     
   20.126181805028629     
   20.074415066891312     
   20.283433471014124     
   20.000000011494752     
   29.897455734909339     
   21.858067570252363     
   30.276241529293909     
   20.000000000216545     
   20.000000000095735     
   20.002852002627620     
   21.821995360810590     
   20.047440156199247     
   20.002729695155846     
   20.128149359880794     
   20.000000000007631     
   20.027185903164252     
   26.238546431390155     
   20.000000001102112     
   20.000000002471641     
   28.767568656662718     
   20.806114334456083     
   20.488877614625878     
   20.072341103747611     
   20.000011236431675     
   20.062566150589717     
   20.000000216912870     
   20.000000198499833     
   20.005066247756634     
   20.000020430152226     
   35.540891186535312     
   20.000000024090273     
   20.000000011370233     
   22.646867077710244     
   20.000000403517117     
   22.571697912579531     
   20.003144647838354     
   20.436967378647850     
   20.000020377820078     
   20.474975625272815     
   20.688727231226110     
   20.317501056730624     
   24.664507584478510     
   20.000000049599503     
   20.196966079659688     
   20.006033026042775     
   20.009536073830816     
   27.919507886554996     
   20.033932379419806     
   31.600680954409498     
   20.001466673741223     
   20.001608281106670     
   20.003062623155305     
   21.166748274342048     
   31.940734469154684     
   20.000024027519469     
   20.728696492246531     
   47.502533885199000     
   20.000000000000000     
   20.001703889561714     
   20.001784138048063     
   59.546929702128033     
   20.000000000000000     
   20.000000000000000     
   20.000305313272943     
   20.000000107929797     
   20.005297505520005     
   20.116706169810353     
   159.98434971425129     
   69.595708109476021     
   34.613360295406473     
   40.199092760107227     
   21.658473916882819     
   20.125600208356982     
   20.006297416736139     
   20.000211896777980     
   20.000004577856384     
   20.000000068613868     
   20.000000000735998     
   20.000000000005354     
   20.000000000000000     
   20.000000000000000     
   20.000000000000000     
   20.000000000000000     
   20.000000000000000     
   20.000000000000000     
   20.000000000000000     
   20.000000000000000     
   20.000000000000000     
   20.000000000000000     
   20.000000000000000     
   20.000000000000000     
   20.000000000000000     
   20.000000000000000     
   20.000000000000000     
   20.000000000000000     
   20.000000000000000     
   20.000000000000000     
   20.000000000000000     
   20.000000000000000     
   20.000000000000000     
   20.000000000000000     
   20.000000000000000     
   20.000000000000000     
   20.000000000000000     
   20.000000000000000     
   20.000000000000000     
   20.000000000000000     
   20.000000000000000     
   20.000000000000000     
   20.000000000000000     
   20.000000000000000     
   20.000000000000000     
   20.000000000000224     
   20.000000000042455     
   20.000000005346156     
   20.000000469834543     
   20.000028303943864     
   20.001150093920028     
   20.003622033938569     
   20.002015651720356     
   20.010973904286807     
   20.031331104215404     
   20.559167703561169     
   26.514866678275919     
   69.151441919732704     
   20.005568063271234     
   21.138481629398800     
   21.686539009255483     
   20.191772755193213     
   20.000000000000000     
   20.016337487777019     
   25.589977879579116     
   20.000291209971703     
   20.043098242712727     
   20.000012876310727     
   20.000000000000000     
   20.000048936693059     
   20.015395885463750     
   23.766307074722139     
   20.000532449935644     
   35.911075622435803     
   20.000006506390783     
   20.000986129378763     
   20.297451298459883     
   20.065213415838393     
   20.000168082259822     
   20.026409037060706     
   20.000044125350740     
   20.000045623229902     
   20.000012567330700     
   20.000172205987425     
   20.000086371083412     
   20.110640054344753     
   27.589934227679979     
   20.970004203784153     
   20.018050281664102     
   20.000024831121163     
   20.000000776015142     
   20.000167697883221     
   20.041231673498128     
   20.000992650891469     
   20.000088797505661     
   20.000566262773368     
   20.000001670716859     
   20.009280814204320     
   20.000003390111335     
   20.000003458697698     
   20.000000784659282     
   20.000003212422826     
   20.000001664549984     
   20.399680138163433     
   20.000006449731469     
   20.567775358619400     
   20.000000094735032     
   20.000000875428313     
   20.022057299542816     
   20.000000403489324     
   20.000000002067033     
   20.000000172173543     
   20.014844188440367     
   20.008468168024212     
   20.024261385749554     
   20.000000093539064     
   20.000000009281184     
   21.019461211101110     
   20.000000004013447     
   22.319734017640023     
   20.000000042640110     
   20.000000021922951     
   20.000000000015302     
   20.000000008287579     
   20.000000009462980     
   21.619521630443021     
   20.000000004240768     
   20.000000004664784     
   20.000000000999798     
   20.000000002054264     
   20.000000000032465     
   20.000000000975309     
   20.000000000076071     
   20.000000000425015     
   20.000000000195978     
   20.000000000084462     
   20.000000000000057     
   20.000000000006953     
   20.000000000036898     
   20.000000000015380     
   20.000000000006843     
   20.000000000000163     
   20.000000000000394     
   20.000000000002778     
   20.000000000001226     
   20.000000000000519     
   20.000000000000000     
   20.000000000000000     
   20.000000000000220     
   20.000000000000110     
   20.000000000000011     
   20.000000000000000     
   20.000000000000000     
   20.000000000000000     
   20.000000000000000     
   20.000000000000000     
   20.000000000000000     
   20.000000000000000     
   20.000000000000000     
   20.000000000000000     
   20.000000000000000     
   20.000000000000000     
   20.000000000000000     
   20.000000000000000     