# vtk DataFile Version 2.0
 temperature
 ASCII
 DATASET UNSTRUCTURED_GRID
 POINTS         773  double
   0.0000000000000000        0.0000000000000000        0.0000000000000000     
   3.5000000000000000        0.0000000000000000        0.0000000000000000     
   3.5000000000000000        40.000000000000000        0.0000000000000000     
   0.0000000000000000        40.000000000000000        0.0000000000000000     
  0.43750000000000000        0.0000000000000000        0.0000000000000000     
  0.87500000000000000        0.0000000000000000        0.0000000000000000     
   1.3125000000000000        0.0000000000000000        0.0000000000000000     
   1.7500000000000000        0.0000000000000000        0.0000000000000000     
   2.1875000000000000        0.0000000000000000        0.0000000000000000     
   2.6250000000000000        0.0000000000000000        0.0000000000000000     
   3.0625000000000000        0.0000000000000000        0.0000000000000000     
   3.5000000000000000       0.50000000000000000        0.0000000000000000     
   3.5000000000000000        1.0000000000000000        0.0000000000000000     
   3.5000000000000000        1.5000000000000000        0.0000000000000000     
   3.5000000000000000        2.0000000000000000        0.0000000000000000     
   3.5000000000000000        2.5000000000000000        0.0000000000000000     
   3.5000000000000000        3.0000000000000000        0.0000000000000000     
   3.5000000000000000        3.5000000000000000        0.0000000000000000     
   3.5000000000000000        4.0000000000000000        0.0000000000000000     
   3.5000000000000000        4.5000000000000000        0.0000000000000000     
   3.5000000000000000        5.0000000000000000        0.0000000000000000     
   3.5000000000000000        5.5000000000000000        0.0000000000000000     
   3.5000000000000000        6.0000000000000000        0.0000000000000000     
   3.5000000000000000        6.5000000000000000        0.0000000000000000     
   3.5000000000000000        7.0000000000000000        0.0000000000000000     
   3.5000000000000000        7.5000000000000000        0.0000000000000000     
   3.5000000000000000        8.0000000000000000        0.0000000000000000     
   3.5000000000000000        8.5000000000000000        0.0000000000000000     
   3.5000000000000000        9.0000000000000000        0.0000000000000000     
   3.5000000000000000        9.5000000000000000        0.0000000000000000     
   3.5000000000000000        10.000000000000000        0.0000000000000000     
   3.5000000000000000        10.500000000000000        0.0000000000000000     
   3.5000000000000000        11.000000000000000        0.0000000000000000     
   3.5000000000000000        11.500000000000000        0.0000000000000000     
   3.5000000000000000        12.000000000000000        0.0000000000000000     
   3.5000000000000000        12.500000000000000        0.0000000000000000     
   3.5000000000000000        13.000000000000000        0.0000000000000000     
   3.5000000000000000        13.500000000000000        0.0000000000000000     
   3.5000000000000000        14.000000000000000        0.0000000000000000     
   3.5000000000000000        14.500000000000000        0.0000000000000000     
   3.5000000000000000        15.000000000000000        0.0000000000000000     
   3.5000000000000000        15.500000000000000        0.0000000000000000     
   3.5000000000000000        16.000000000000000        0.0000000000000000     
   3.5000000000000000        16.500000000000000        0.0000000000000000     
   3.5000000000000000        17.000000000000000        0.0000000000000000     
   3.5000000000000000        17.500000000000000        0.0000000000000000     
   3.5000000000000000        18.000000000000000        0.0000000000000000     
   3.5000000000000000        18.500000000000000        0.0000000000000000     
   3.5000000000000000        19.000000000000000        0.0000000000000000     
   3.5000000000000000        19.500000000000000        0.0000000000000000     
   3.5000000000000000        20.000000000000000        0.0000000000000000     
   3.5000000000000000        20.500000000000000        0.0000000000000000     
   3.5000000000000000        21.000000000000000        0.0000000000000000     
   3.5000000000000000        21.500000000000000        0.0000000000000000     
   3.5000000000000000        22.000000000000000        0.0000000000000000     
   3.5000000000000000        22.500000000000000        0.0000000000000000     
   3.5000000000000000        23.000000000000000        0.0000000000000000     
   3.5000000000000000        23.500000000000000        0.0000000000000000     
   3.5000000000000000        24.000000000000000        0.0000000000000000     
   3.5000000000000000        24.500000000000000        0.0000000000000000     
   3.5000000000000000        25.000000000000000        0.0000000000000000     
   3.5000000000000000        25.500000000000000        0.0000000000000000     
   3.5000000000000000        26.000000000000000        0.0000000000000000     
   3.5000000000000000        26.500000000000000        0.0000000000000000     
   3.5000000000000000        27.000000000000000        0.0000000000000000     
   3.5000000000000000        27.500000000000000        0.0000000000000000     
   3.5000000000000000        28.000000000000000        0.0000000000000000     
   3.5000000000000000        28.500000000000000        0.0000000000000000     
   3.5000000000000000        29.000000000000000        0.0000000000000000     
   3.5000000000000000        29.500000000000000        0.0000000000000000     
   3.5000000000000000        30.000000000000000        0.0000000000000000     
   3.5000000000000000        30.500000000000000        0.0000000000000000     
   3.5000000000000000        31.000000000000000        0.0000000000000000     
   3.5000000000000000        31.500000000000000        0.0000000000000000     
   3.5000000000000000        32.000000000000000        0.0000000000000000     
   3.5000000000000000        32.500000000000000        0.0000000000000000     
   3.5000000000000000        33.000000000000000        0.0000000000000000     
   3.5000000000000000        33.500000000000000        0.0000000000000000     
   3.5000000000000000        34.000000000000000        0.0000000000000000     
   3.5000000000000000        34.500000000000000        0.0000000000000000     
   3.5000000000000000        35.000000000000000        0.0000000000000000     
   3.5000000000000000        35.500000000000000        0.0000000000000000     
   3.5000000000000000        36.000000000000000        0.0000000000000000     
   3.5000000000000000        36.500000000000000        0.0000000000000000     
   3.5000000000000000        37.000000000000000        0.0000000000000000     
   3.5000000000000000        37.500000000000000        0.0000000000000000     
   3.5000000000000000        38.000000000000000        0.0000000000000000     
   3.5000000000000000        38.500000000000000        0.0000000000000000     
   3.5000000000000000        39.000000000000000        0.0000000000000000     
   3.5000000000000000        39.500000000000000        0.0000000000000000     
   3.0625000000000000        40.000000000000000        0.0000000000000000     
   2.6250000000000000        40.000000000000000        0.0000000000000000     
   2.1875000000000000        40.000000000000000        0.0000000000000000     
   1.7500000000000000        40.000000000000000        0.0000000000000000     
   1.3125000000000000        40.000000000000000        0.0000000000000000     
  0.87500000000000000        40.000000000000000        0.0000000000000000     
  0.43750000000000000        40.000000000000000        0.0000000000000000     
   0.0000000000000000        39.500000000000000        0.0000000000000000     
   0.0000000000000000        39.000000000000000        0.0000000000000000     
   0.0000000000000000        38.500000000000000        0.0000000000000000     
   0.0000000000000000        38.000000000000000        0.0000000000000000     
   0.0000000000000000        37.500000000000000        0.0000000000000000     
   0.0000000000000000        37.000000000000000        0.0000000000000000     
   0.0000000000000000        36.500000000000000        0.0000000000000000     
   0.0000000000000000        36.000000000000000        0.0000000000000000     
   0.0000000000000000        35.500000000000000        0.0000000000000000     
   0.0000000000000000        35.000000000000000        0.0000000000000000     
   0.0000000000000000        34.500000000000000        0.0000000000000000     
   0.0000000000000000        34.000000000000000        0.0000000000000000     
   0.0000000000000000        33.500000000000000        0.0000000000000000     
   0.0000000000000000        33.000000000000000        0.0000000000000000     
   0.0000000000000000        32.500000000000000        0.0000000000000000     
   0.0000000000000000        32.000000000000000        0.0000000000000000     
   0.0000000000000000        31.500000000000000        0.0000000000000000     
   0.0000000000000000        31.000000000000000        0.0000000000000000     
   0.0000000000000000        30.500000000000000        0.0000000000000000     
   0.0000000000000000        30.000000000000000        0.0000000000000000     
   0.0000000000000000        29.500000000000000        0.0000000000000000     
   0.0000000000000000        29.000000000000000        0.0000000000000000     
   0.0000000000000000        28.500000000000000        0.0000000000000000     
   0.0000000000000000        28.000000000000000        0.0000000000000000     
   0.0000000000000000        27.500000000000000        0.0000000000000000     
   0.0000000000000000        27.000000000000000        0.0000000000000000     
   0.0000000000000000        26.500000000000000        0.0000000000000000     
   0.0000000000000000        26.000000000000000        0.0000000000000000     
[...]
 CELL_DATA        1368
 SCALARS T double
 LOOKUP_TABLE default
   20.128148429112930     
   21.437576810705533     
   1667.9453574858967     
   33.489850007007128     
   20.000000000081648     
   20.319183267038365     
   1272.0803168407333     
   20.278044348638574     
   20.006689217895506     
   20.219561813192680     
   20.012639376085396     
   28.698473337211002     
   20.186569956781749     
   34.683361759919762     
   29.562063296978888     
   1204.8554638702578     
   1668.8939268039296     
   20.034270650592060     
   20.028932909821354     
   20.538336569880400     
   20.022511799539821     
   20.000454747832471     
   1730.5233833895134     
   20.000930544289638     
   20.105303094449159     
   21.497073532545269     
   20.018100549079374     
   20.390422266122343     
   20.146479440880192     
   20.008165225222886     
   20.561769719528556     
   20.000000000193857     
   21.204591360052540     
   21.598411109478828     
   21.642387437211386     
   20.000000000150266     
   20.060283470097282     
   20.002762086008801     
   20.014731699826616     
   20.002283657206018     
   20.001327100374301     
   20.192378368719456     
   20.001722985405973     
   33.306575409008296     
   20.042859924540267     
   398.86996177818361     
   391.70378170144954     
   20.148849327285564     
   20.215181206659185     
   681.52227376279916     
   684.63004406547054     
   20.010034608656110     
   20.064210205630598     
   20.000000000138744     
   1703.1388176287332     
   20.000000000113211     
   20.000000000522043     
   20.000358942665919     
   20.000173601157353     
   20.000578724818322     
   20.000000000761858     
   32.532310446637709     
   20.001085571437685     
   20.000000002088250     
   20.444079032400438     
   20.610510542201538     
   20.005054850102681     
   20.611108358634691     
   20.014113661135159     
   20.021302625847138     
   20.000000000388884     
   1670.4639959698886     
   20.000000001033921     
   20.019240949945402     
   20.003498907515382     
   20.005589258225353     
   20.000000003784596     
   20.000000014486972     
   20.000000000281439     
   373.79295272105975     
   20.000719337424076     
   20.000144719537552     
   213.95200167836288     
   20.000061206095562     
   123.32112191016549     
   20.048452994855054     
   20.070446711585259     
   370.14646391770970     
   20.000278084158474     
   847.35435658252254     
   20.001002288948957     
   20.001606882776446     
   45.117664571475089     
   20.000000093414066     
   791.45388691306937     
   20.000015369240007     
   31.344718097741012     
   20.000000025506885     
   20.000021980565514     
   20.000000005478501     
   212.53428650473032     
   20.000000002841919     
   193.14474814750420     
   195.04648930284577     
   20.001428868029041     
   20.000231610427988     
   20.000000000274103     
   20.005732238978958     
   20.000000000205539     
   20.000000007181239     
   23.083004632854308     
   488.61185036788453     
   22.211488186758505     
   20.000006656361666     
   20.000000001504254     
   20.000000000083016     
   114.60313271776292     
   20.833575789708743     
   115.37820851259899     
   20.000001675554412     
   20.000000002851884     
   20.000005967744908     
   20.000120721749276     
   122.55490113128505     
   20.294863711548135     
   272.70693192379053     
   20.003988112221684     
   20.005976500769652     
   20.000082484684899     
   20.073553664789742     
   20.000000000389996     
   20.000008976760412     
   498.32235290624368     
   20.096610921113356     
   20.000000019425638     
   20.000000161581696     
   20.029321901901209     
   69.716901748810884     
   1312.5754004869268     
   70.072507075426472     
   998.53752646848363     
   462.82195632553851     
   157.58018703751304     
   20.000011408548321     
   20.000049251365901     
   20.000001428613317     
   485.19653513537355     
   20.000029253969814     
   20.000000010567170     
   20.000000019548924     
   20.000001643478768     
   276.16425460694245     
   20.000043544270266     
   44.749122812095898     
   44.840151315512905     
   20.000000036409464     
   20.000001239605837     
   91.245917655971638     
   20.000105238797616     
   20.000000123038923     
   20.000000047429438     
   20.000000001461718     
   30.843507892959856     
   44.886920130978680     
   20.000380670162013     
   20.451567169001176     
   20.000000124343384     
   20.000000000074827     
   222.52356706652884     
   159.45037948020266     
   20.000004357792534     
   20.000000538320965     
   20.000000068395025     
   31.248588682957969     
   36.353808629357552     
   20.000000877651928     
   1002.3069627596209     
   20.051024867616583     
   91.972666058999010     
   20.000000227471606     
   140.83603313673714     
   133.48877255467244     
   27.150928347795681     
   20.000000290719839     
   26.391618256619886     
   20.000001973918938     
   20.000090693874213     
   20.000150480638546     
   42.588924286612560     
   20.000000000263714     
   236.77921840856396     
   20.004254569959166     
   22.117513044161534     
   22.093939393887872     
   23.296855309985958     
   20.000000000122739     
   561.86710204795452     
   20.000002702675491     
   20.000000000237382     
   20.000000412807303     
   22.164899846880736     
   20.000000741116509     
   84.356587019034393     
   20.000032716095998     
   20.000054656975813     
   20.000005186732277     
   80.214202342630813     
   21.038007153240915     
   20.000000522428149     
   20.000000000315637     
   20.000000937122174     
   20.000000000697543     
   21.274471957250437     
   20.000000000107121     
   20.000006592048042     
   20.000000299957168     
   20.000015261654898     
   20.000036546397727     
   20.006338997660293     
   20.000001310365846     
   20.815528905763063     
   20.000000000357705     
   20.000087709476226     
   40.951882634327795     
   20.000019336054859     
   36.605070299386554     
   20.000019428081892     
   20.000000166100619     
   20.000000000186422     
   20.000000220934435     
   20.000002981833685     
   20.000000000515598     
   20.288114946557805     
   20.000000010260429     
   20.463798846410086     
   20.000000122341930     
   20.000073348090933     
   20.000000000206587     
   20.094335918078009     
   20.000092257087019     
   25.432216732957205     
   27.238008422087557     
   298.64137333862237     
   20.130370049749924     
   39.781122123858630     
   52.591665861003449     
   1424.8457676105729     
   50.405392487764878     
   20.028626277593400     
   20.000000091193399     
   20.000000026773325     
   20.000328771429235     
   20.000002955582328     
   20.157169020120509     
   1505.0036256535354     
   20.000000019357937     
   20.000000066998428     
   20.000000394944671     
   20.000408128191307     
   20.000003769318383     
   20.000000000808217     
   716.95531369822868     
   555.01212560617250     
   20.001368865999400     
   20.000166628604720     
   20.000017463318347     
   20.049532223123563     
   20.000000000672081     
   20.001679209482809     
   1449.3038749624241     
   23.379963710234442     
   20.012496594659694     
   20.000002143546318     
   20.000003798789251     
   20.000002161250194     
   20.000000000756465     
   20.005302913970624     
   20.000000000689116     
   1365.6020757520541     
   1184.6479570268516     
   20.000000000073364     
   1237.6657297667523     
   20.000000000920643     
   20.006427690596386     
   1354.1701132670662     
   20.000136369102862     
   24.879370044190484     
   850.53184409622145     
   1376.3616538529791     
   20.000000004895405     
   21.313512193556399     
   20.000000000147313     
   20.000000049879574     
   20.000002184310372     
   20.000003863564231     
   20.000000014353024     
   20.000000000293149     
   20.000000005404516     
   20.000000000242256     
   902.02824136067636     
   20.478311352825113     
   20.000000036098477     
   633.54831308971086     
   20.000000000212612     
   20.000000010258312     
   20.162255951146367     
   20.051157941052679     
   20.000000000086018     
   20.000000000151363     
   1159.4496963553672     
   20.000000000536243     
   1278.1503437911597     
   1051.4555450279292     
   20.000003438008196     
   20.000002515806962     
   1464.9575855537516     
   24.545496988931941     
   303.95592347819974     
   20.000895899127375     
   20.000000000253930     
   20.000000000141362     
   20.000000000765112     
   757.74159436806804     
   20.000000810882689     
   20.000000000450985     
   20.000000067023148     
   20.000000632815574     
   20.000043830877729     
   1302.6358908403081     
   754.11224199449100     
   20.000000000276625     
   20.000000000557208     
   36.965333219097488     
   1178.2630380190135     
   20.000000697289206     
   20.000000001473360     
   1198.8033568498456     
   1270.0458659108715     
   20.000054676096195     
   20.000008951277781     
   985.60567780352835     
   20.000000000468866     
   20.000000005649348     
   20.000000002111815     
   20.000000002958529     
   889.23111605893598     
   20.000011302350089     
   20.000000004014222     
   20.000000006452083     
   23.850979457942991     
   22.744018564034825     
   20.000000001997801     
   20.000000000414289     
   20.000101359431735     
   20.000000001081823     
   1120.1585775133146     
   20.000000003795972     
   1015.7979583027513     
   20.000000001343835     
   834.34322555044980     
   20.000000000357023     
   949.42835107797066     
   751.64919893304921     
   1014.3581611095282     
   1189.1431876183278     
   1009.2273940597921     
   20.000000000997304     
   20.000000000393044     
   20.000000001045489     
   850.25475388160498     
   810.52029881400824     
   731.81456773266120     
   705.57090513975845     
   1094.1953857465573     
   633.37375874699546     
   20.000000702306139     
   20.000000001549008     
   20.000000009301250     
   20.000000007675034     
   1221.7111449521842     
   857.67033572162757     
   865.48391103115364     
   936.87253855280107     
   601.43298170209289     
   688.30775840723288     
   20.000000007689017     
   20.000000005466514     
   20.000000042153175     
   522.14894320439089     
   798.23992571451333     
   520.38991538623429     
   20.000000012156381     
   20.000000084883169     
   20.000000123794820     
   596.93351002899510     
   440.86123377619856     
   729.99803653469439     
   20.000000036871153     
   573.11138202809548     
   617.44124256010946     
   20.000000010616571     
   20.000000060510160     
   622.41458126514169     
   20.000000223920235     
   20.000000067310719     
   503.44660640144599     
   20.000000154569982     
   20.000000050732343     
   20.000000036581696     
   20.000000256140527     
   532.13018194903168     
   421.68938974857514     
   446.76272311268190     
   20.000000013560133     
   351.97325050814112     
   374.84411820899868     
   20.000000561629303     
   20.000000752980476     
   20.000000019984864     
   20.000000798229433     
   677.17282057950456     
   20.000002325509488     
   20.000003018056333     
   20.000004093670128     
   20.000001037724680     
   274.30554954894666     
   20.000001780234602     
   20.000001331815202     
   365.46939689577960     
   20.000004138053711     
   20.000002352521943     
   20.000000025072772     
   20.000007562457295     
   20.000006557584655     
   20.000004672419234     
   20.000012202312540     
   20.000003130764615     
   20.000035302020589     
   20.000044973351137     
   20.000166351733132     
   20.000099803170347     
   20.000077786356847     
   20.000129114482384     
   20.000268948120009     
   20.001132231298730     
   20.000347595257622     
   20.000271293977192     
   20.000717897267279     
   20.000443172406051     
   20.004435610887942     
   20.001445166973944     
   20.001141840059528     
   20.002881782298374     
   20.001820789852449     
   20.002360716891285     
   20.000563360445231     
   20.003690136449759     
   20.002749284672486     
   20.001772115227286     
   20.001496824336865     
   20.016097790580773     
   20.005591307494182     
   20.004472049439649     
   20.010765207688124     
   20.006961346343022     
   20.002286828785653     
   351.45953797131256     
   20.054601230778388     
   20.020146396880239     
   20.016274081338963     
   20.037214267561165     
   20.024627090316059     
   20.008639092903231     
   20.044808749623030     
   20.033246457170449     
   20.019413466434948     
   20.029218347899096     
   20.172347892816653     
   20.067448721450180     
   20.055169285486603     
   20.120260230887649     
   20.081762637164108     
   20.030381285526879     
   20.022582746238520     
   20.507098918460528     
   20.210284933292066     
   20.174082710567188     
   20.361909497584687     
   20.251986504118236     
   20.099286028383261     
   20.391522832883894     
   20.303263414499600     
   20.189366408023830     
   20.272094493221285     
   21.391640113951944     
   20.611119625365806     
   20.511973394781617     
   21.016828582452113     
   20.722428495985788     
   20.302339034705657     
   208.52475411659046     
   238.34817798270379     
   220.30745747348811     
   20.215110197138120     
   21.930997107586379     
   107.80025753227471     
   255.46931046944820     
   115.21213503205514     
   103.10604868580801     
   121.44848355413274     
   23.567251131794311     
   244.36765834759990     
   203.71332246052933     
   261.78854604431717     
   21.657365816578892     
   21.404589675596664     
   55.317414192740358     
   198.82862854680280     
   96.495444795641191     
   52.554043575679692     
   117.75775541017975     
   20.858590645718188     
   86.316838436484019     
   210.60429730272892     
   22.282870523902432     
   22.668482260869514     
   287.82676591279630     
   166.79655643973865     
   147.91134041396694     
   99.529628953370334     
   31.498763064684791     
   84.966755238155997     
   26.445788404804816     
   25.874579322659518     
   61.257585134137685     
   32.504437366285622     
   299.70116701622874     
   24.194017189265555     
   23.597662806349618     
   213.13008052856310     
   26.615878121493573     
   205.00978796574367     
   61.715071717473727     
   128.79591250932040     
   31.773599436600659     
   142.67933078376413     
   144.76860917095124     
   137.94336115101055     
   205.18434912157295     
   24.810641769368477     
   123.69391331820860     
   72.072947502949432     
   72.900686978824652     
   262.66200347579638     
   74.210046791806448     
   294.73527965155694     
   47.502623127236269     
   52.279240482427504     
   59.814011021429032     
   177.89650354329476     
   306.55259285429412     
   34.523312347294457     
   152.92421091221220     
   251.84860743026158     
   20.000013626487132     
   54.354586018976420     
   57.636293679319010     
   296.09689355858296     
   20.000053066926025     
   20.000018986544635     
   45.511630046643589     
   25.636223420162178     
   63.767747690573181     
   106.64747260709380     
   426.09794677486087     
   301.00746493382223     
   213.58944885693649     
   244.18905456938342     
   126.67961219710878     
   77.370630711454865     
   49.403967119176976     
   34.296295819211018     
   26.559096335843762     
   22.807064719594077     
   21.135645882297013     
   20.427346259287788     
   20.150681900462743     
   20.049319863771487     
   20.015078644710218     
   20.004218345830033     
   20.001136006712851     
   20.000276929497918     
   20.000063807473325     
   20.000038448551315     
   20.000022966737649     
   20.000031908692510     
   20.000007995693583     
   20.000011204806746     
   20.000001551837034     
   20.000000278621396     
   20.000000046372808     
   20.000000007226149     
   20.000012374933771     
   20.000000004050317     
   20.000000027408376     
   20.000000172080259     
   20.000001009996968     
   20.000005481413634     
   20.000016247705858     
   20.000027535154651     
   20.000021158820957     
   20.000046490425483     
   20.000035897297558     
   20.000213776221241     
   20.000910132962776     
   20.003605693846453     
   20.013298711353013     
   20.045618191807787     
   20.145586550371519     
   20.432969439413814     
   21.200901869097187     
   23.110731578875015     
   27.540416014128713     
   37.157295334151229     
   56.804862956608005     
   66.854535620923954     
   61.249376139787806     
   79.412512698440139     
   94.569584639486365     
   163.38348044659892     
   282.75115835788932     
   481.41401474657948     
   67.955656055900747     
   171.22482739876480     
   182.85506421263659     
   119.28653854293998     
   20.000007190836151     
   80.547557270217467     
   245.88112009532728     
   44.130302044635492     
   89.235579809458898     
   33.591269641592156     
   20.000009427566575     
   37.829792305179296     
   75.111572646768650     
   219.68626673117294     
   46.738644985041873     
   313.67653085391163     
   31.595692035201502     
   51.314598398685042     
   127.53918601785571     
   90.090122294303654     
   41.134451497135501     
   83.496429261843815     
   35.207793163726407     
   36.149357202833436     
   32.439551965565421     
   43.652480986068532     
   38.893002784456606     
   101.59689119352365     
   248.75412708480360     
   143.19492414892935     
   85.933580296657752     
   35.207758649301056     
   26.718987807277689     
   42.941770034690897     
   85.072005036597503     
   52.668753296194147     
   39.761938866571420     
   49.549877957942257     
   28.809087257462405     
   70.510400649874626     
   30.359366859980085     
   30.674255529669416     
   27.079794655065619     
   29.409082083823979     
   28.455991706731520     
   120.55166479970414     
   31.134399110890008     
   123.95296786046900     
   24.972792544896844     
   27.899040615807898     
   72.096806214185776     
   26.346876545999461     
   22.030781739807910     
   25.195595040589414     
   72.113883032457309     
   64.561407957298471     
   76.167077808367679     
   24.713603837911560     
   22.760103222116047     
   153.16525936543991     
   22.246345452715477     
   183.42521409430242     
   23.945880685824513     
   23.553593273587332     
   20.770690430676531     
   22.354954836131959     
   22.917282197108776     
   173.79347148397670     
   22.128211055271326     
   22.608498927893255     
   22.000082374562155     
   22.154238879421825     
   20.865406106950701     
   21.902599058364942     
   21.058721683691719     
   21.576951956451865     
   21.389710191852902     
   21.146097097702722     
   20.270273852065674     
   20.751936215114323     
   21.001726415063981     
   20.819126807749910     
   20.715348423054269     
   20.311565635439202     
   20.381148049258098     
   20.585730245155087     
   20.510463616299788     
   20.415221848094120     
   20.089942162664205     
   20.263648074169570     
   20.359025550341585     
   20.289551144691998     
   20.250275267036315     
   20.103276636275837     
   20.129555659140724     
   20.202619013966302     
   20.174504556303614     
   20.140579300950957     
   20.027586935369598     
   20.086266706869154     
   20.120094727212802     
   20.095953690332117     
   20.081930470150571     
   20.032673095645812     
   20.040664885372056     
   20.065491565813662     