# vtk DataFile Version 2.0
 temperature
 ASCII
 DATASET UNSTRUCTURED_GRID
 POINTS         773  double
   0.0000000000000000        0.0000000000000000        0.0000000000000000     
   3.5000000000000000        0.0000000000000000        0.0000000000000000     
   3.5000000000000000        40.000000000000000        0.0000000000000000     
   0.0000000000000000        40.000000000000000        0.0000000000000000     
  0.43750000000000000        0.0000000000000000        0.0000000000000000     
  0.87500000000000000        0.0000000000000000        0.0000000000000000     
   1.3125000000000000        0.0000000000000000        0.0000000000000000     
   1.7500000000000000        0.0000000000000000        0.0000000000000000     
   2.1875000000000000        0.0000000000000000        0.0000000000000000     
   2.6250000000000000        0.0000000000000000        0.0000000000000000     
   3.0625000000000000        0.0000000000000000        0.0000000000000000     
   3.5000000000000000       0.50000000000000000        0.0000000000000000     
   3.5000000000000000        1.0000000000000000        0.0000000000000000     
   3.5000000000000000        1.5000000000000000        0.0000000000000000     
   3.5000000000000000        2.0000000000000000        0.0000000000000000     
   3.5000000000000000        2.5000000000000000        0.0000000000000000     
   3.5000000000000000        3.0000000000000000        0.0000000000000000     
   3.5000000000000000        3.5000000000000000        0.0000000000000000     
   3.5000000000000000        4.0000000000000000        0.0000000000000000     
   3.5000000000000000        4.5000000000000000        0.0000000000000000     
   3.5000000000000000        5.0000000000000000        0.0000000000000000     
   3.5000000000000000        5.5000000000000000        0.0000000000000000     
   3.5000000000000000        6.0000000000000000        0.0000000000000000     
   3.5000000000000000        6.5000000000000000        0.0000000000000000     
   3.5000000000000000        7.0000000000000000        0.0000000000000000     
   3.5000000000000000        7.5000000000000000        0.0000000000000000     
   3.5000000000000000        8.0000000000000000        0.0000000000000000     
   3.5000000000000000        8.5000000000000000        0.0000000000000000     
   3.5000000000000000        9.0000000000000000        0.0000000000000000     
   3.5000000000000000        9.5000000000000000        0.0000000000000000     
   3.5000000000000000        10.000000000000000        0.0000000000000000     
   3.5000000000000000        10.500000000000000        0.0000000000000000     
   3.5000000000000000        11.000000000000000        0.0000000000000000     
   3.5000000000000000        11.500000000000000        0.0000000000000000     
   3.5000000000000000        12.000000000000000        0.0000000000000000     
   3.5000000000000000        12.500000000000000        0.0000000000000000     
   3.5000000000000000        13.000000000000000        0.0000000000000000     
   3.5000000000000000        13.500000000000000        0.0000000000000000     
   3.5000000000000000        14.000000000000000        0.0000000000000000     
   3.5000000000000000        14.500000000000000        0.0000000000000000     
   3.5000000000000000        15.000000000000000        0.0000000000000000     
   3.5000000000000000        15.500000000000000        0.0000000000000000     
   3.5000000000000000        16.000000000000000        0.0000000000000000     
   3.5000000000000000        16.500000000000000        0.0000000000000000     
   3.5000000000000000        17.000000000000000        0.0000000000000000     
   3.5000000000000000        17.500000000000000        0.0000000000000000     
   3.5000000000000000        18.000000000000000        0.0000000000000000     
   3.5000000000000000        18.500000000000000        0.0000000000000000     
   3.5000000000000000        19.000000000000000        0.0000000000000000     
   3.5000000000000000        19.500000000000000        0.0000000000000000     
   3.5000000000000000        20.000000000000000        0.0000000000000000     
   3.5000000000000000        20.500000000000000        0.0000000000000000     
   3.5000000000000000        21.000000000000000        0.0000000000000000     
   3.5000000000000000        21.500000000000000        0.0000000000000000     
   3.5000000000000000        22.000000000000000        0.0000000000000000     
   3.5000000000000000        22.500000000000000        0.0000000000000000     
   3.5000000000000000        23.000000000000000        0.0000000000000000     
   3.5000000000000000        23.500000000000000        0.0000000000000000     
   3.5000000000000000        24.000000000000000        0.0000000000000000     
   3.5000000000000000        24.500000000000000        0.0000000000000000     
   3.5000000000000000        25.000000000000000        0.0000000000000000     
   3.5000000000000000        25.500000000000000        0.0000000000000000     
   3.5000000000000000        26.000000000000000        0.0000000000000000     
   3.5000000000000000        26.500000000000000        0.0000000000000000     
   3.5000000000000000        27.000000000000000        0.0000000000000000     
   3.5000000000000000        27.500000000000000        0.0000000000000000     
   3.5000000000000000        28.000000000000000        0.0000000000000000     
   3.5000000000000000        28.500000000000000        0.0000000000000000     
   3.5000000000000000        29.000000000000000        0.0000000000000000     
   3.5000000000000000        29.500000000000000        0.0000000000000000     
   3.5000000000000000        30.000000000000000        0.0000000000000000     
   3.5000000000000000        30.500000000000000        0.0000000000000000     
   3.5000000000000000        31.000000000000000        0.0000000000000000     
   3.5000000000000000        31.500000000000000        0.0000000000000000     
   3.5000000000000000        32.000000000000000        0.0000000000000000     
   3.5000000000000000        32.500000000000000        0.0000000000000000     
   3.5000000000000000        33.000000000000000        0.0000000000000000     
   3.5000000000000000        33.500000000000000        0.0000000000000000     
   3.5000000000000000        34.000000000000000        0.0000000000000000     
   3.5000000000000000        34.500000000000000        0.0000000000000000     
   3.5000000000000000        35.000000000000000        0.0000000000000000     
   3.5000000000000000        35.500000000000000        0.0000000000000000     
   3.5000000000000000        36.000000000000000        0.0000000000000000     
   3.5000000000000000        36.500000000000000        0.0000000000000000     
   3.5000000000000000        37.000000000000000        0.0000000000000000     
   3.5000000000000000        37.500000000000000        0.0000000000000000     
   3.5000000000000000        38.000000000000000        0.0000000000000000     
   3.5000000000000000        38.500000000000000        0.0000000000000000     
   3.5000000000000000        39.000000000000000        0.0000000000000000     
   3.5000000000000000        39.500000000000000        0.0000000000000000     
   3.0625000000000000        40.000000000000000        0.0000000000000000     
   2.6250000000000000        40.000000000000000        0.0000000000000000     
   2.1875000000000000        40.000000000000000        0.0000000000000000     
   1.7500000000000000        40.000000000000000        0.0000000000000000     
   1.3125000000000000        40.000000000000000        0.0000000000000000     
  0.87500000000000000        40.000000000000000        0.0000000000000000     
  0.43750000000000000        40.000000000000000        0.0000000000000000     
   0.0000000000000000        39.500000000000000        0.0000000000000000     
   0.0000000000000000        39.000000000000000        0.0000000000000000     
   0.0000000000000000        38.500000000000000        0.0000000000000000     
   0.0000000000000000        38.000000000000000        0.0000000000000000     
   0.0000000000000000        37.500000000000000        0.0000000000000000     
   0.0000000000000000        37.000000000000000        0.0000000000000000     
   0.0000000000000000        36.500000000000000        0.0000000000000000     
   0.0000000000000000        36.000000000000000        0.0000000000000000     
   0.0000000000000000        35.500000000000000        0.0000000000000000     
   0.0000000000000000        35.000000000000000        0.0000000000000000     
   0.0000000000000000        34.500000000000000        0.0000000000000000     
   0.0000000000000000        34.000000000000000        0.0000000000000000     
   0.0000000000000000        33.500000000000000        0.0000000000000000     
   0.0000000000000000        33.000000000000000        0.0000000000000000     
   0.0000000000000000        32.500000000000000        0.0000000000000000     
   0.0000000000000000        32.000000000000000        0.0000000000000000     
   0.0000000000000000        31.500000000000000        0.0000000000000000     
   0.0000000000000000        31.000000000000000        0.0000000000000000     
   0.0000000000000000        30.500000000000000        0.0000000000000000     
   0.0000000000000000        30.000000000000000        0.0000000000000000     
   0.0000000000000000        29.500000000000000        0.0000000000000000     
   0.0000000000000000        29.000000000000000        0.0000000000000000     
   0.0000000000000000        28.500000000000000        0.0000000000000000     
   0.0000000000000000        28.000000000000000        0.0000000000000000     
   0.0000000000000000        27.500000000000000        0.0000000000000000     
   0.0000000000000000        27.000000000000000        0.0000000000000000     
   0.0000000000000000        26.500000000000000        0.0000000000000000     
   0.0000000000000000        26.000000000000000        0.0000000000000000     
[...]
 CELL_DATA        1368
 SCALARS T double
 LOOKUP_TABLE default
   20.636266256239615     
   24.263927626434750     
   1675.4753448069289     
   42.521561593039735     
   20.000000167089180     
   21.303821013965230     
   1278.6865099787099     
   21.191158860729360     
   20.070778065019887     
   20.984015633107781     
   20.114431350211376     
   36.563086253498916     
   20.919018441140867     
   44.582603380650319     
   37.790289376434337     
   1211.6101083398082     
   1676.6049432994353     
   20.248083772429901     
   20.222156361050672     
   22.030927802776556     
   20.182009367734572     
   20.009922861242320     
   1736.4524235563206     
   20.016987200691318     
   20.540042001584933     
   24.246438829064914     
   20.163572836474259     
   21.534305132219156     
   20.726937619405820     
   20.083046094678284     
   22.019165031768573     
   20.000000311849501     
   23.701294979083411     
   24.590112632164530     
   24.530923873914077     
   20.000000260046527     
   20.397246866111146     
   20.039046586333566     
   20.133009844069054     
   20.034489975700822     
   20.024195316880256     
   20.905248658743940     
   20.027637461499864     
   43.280670055264331     
   20.296354788438460     
   435.10841788193500     
   427.38920382592977     
   20.769488361694698     
   21.011854430949164     
   695.71074229014619     
   700.25916115695372     
   20.094829794233661     
   20.399945006918969     
   20.000000243502555     
   1708.1399534450918     
   20.000000209850313     
   20.000000627122642     
   20.008963363881669     
   20.004921055376457     
   20.012015213992548     
   20.000000823618599     
   41.832524253410789     
   20.019764287248638     
   20.000001705393135     
   21.742157604169073     
   22.215150872150463     
   20.064158132618857     
   22.139535272249013     
   20.134832641655979     
   20.182441247746127     
   20.000000510175475     
   1676.3613994641662     
   20.000001021625113     
   20.164521987094442     
   20.046991309790716     
   20.066319254407912     
   20.000002591042254     
   20.000006858053684     
   20.000000407901030     
   410.90308311712442     
   20.013813169230087     
   20.004394524741024     
   249.57252968685961     
   20.002449418951954     
   153.79918067396531     
   20.334725840819729     
   20.441753599535911     
   407.01789300397758     
   20.007347985050465     
   859.85902895441916     
   20.019497774621421     
   20.027485263990020     
   61.905895701082912     
   20.000026202492219     
   803.72492531113210     
   20.000951844953001     
   42.327693574286911     
   20.000010214258101     
   20.001166806723909     
   20.000003391996533     
   247.88823068920408     
   20.000002115744021     
   215.00270639192740     
   218.12456695420420     
   20.024523192764580     
   20.006176077244344     
   20.000000396761767     
   20.063961604761534     
   20.000000326293677     
   20.000004107371861     
   27.322327844745921     
   521.40668947819427     
   26.292281263963918     
   20.000514328177779     
   20.000001345988611     
   20.000000168001957     
   134.76390835798375     
   23.006036110927184     
   136.44533989845246     
   20.000207877238893     
   20.000002129826541     
   20.000461367131493     
   20.004239124197035     
   152.79892824650176     
   21.379714461469121     
   308.49915998522425     
   20.053417445682481     
   20.071834351143742     
   20.003087332710326     
   20.438821056916687     
   20.000000513211265     
   20.000645711603863     
   531.91816901855634     
   20.602363905339793     
   20.000008423294425     
   20.000038543639484     
   20.250002680479973     
   86.413986647003128     
   1320.2318634009271     
   87.471753793099225     
   1007.7628970679236     
   481.59147987265339     
   189.88349910062075     
   20.000758167078157     
   20.002123609548402     
   20.000162262617952     
   504.41151796208931     
   20.001455317268277     
   20.000005458553929     
   20.000008495111750     
   20.000203464120183     
   312.50041253585078     
   20.002023586143416     
   57.301360720922432     
   57.782967619245376     
   20.000013237782532     
   20.000140690631412     
   117.46896955778583     
   20.003415358487008     
   20.000031775155385     
   20.000015960563612     
   20.000001312434588     
   38.510905554709851     
   61.525960638915898     
   20.008847297368515     
   21.687487859107822     
   20.000032147825266     
   20.000000154628335     
   244.52604428934680     
   192.24868439829095     
   20.000361944750804     
   20.000084867167107     
   20.000020909768647     
   42.137091971267203     
   49.564950153083132     
   20.000107362496138     
   1012.5011708805347     
   20.332150981831923     
   118.54756172878618     
   20.000049474333416     
   162.81711661111140     
   154.50020543731449     
   35.451511287396642     
   20.000058841715422     
   33.082422769821413     
   20.000208094410269     
   20.003404328335247     
   20.004916103542229     
   56.394249313080124     
   20.000000382549356     
   259.79621294420895     
   20.053395968971419     
   25.372895063684197     
   25.355779844270337     
   28.403069461720889     
   20.000000195870435     
   579.80447041958666     
   20.000241459773974     
   20.000000340768420     
   20.000075987366525     
   26.159918784053954     
   20.000115813678832     
   103.19689484710064     
   20.001626896855242     
   20.002358854780844     
   20.000465822233082     
   98.114763565327621     
   23.223222025188683     
   20.000089738617348     
   20.000000413234073     
   20.000136721311790     
   20.000000760698192     
   24.072190451583861     
   20.000000171441080     
   20.000551263399949     
   20.000055650664272     
   20.001015354439840     
   20.001683913559468     
   20.072115687357975     
   20.000174594400406     
   22.941234163398395     
   20.000000472348077     
   20.003054136143913     
   54.239799213102529     
   20.001111362004458     
   50.031866480674140     
   20.001202959637386     
   20.000036361487791     
   20.000000267176489     
   20.000044124737929     
   20.000291623484006     
   20.000000616069663     
   21.349180511586336     
   20.000005320201577     
   21.901249199858597     
   20.000028840337400     
   20.003158738095753     
   20.000000295954631     
   20.588758220026669     
   20.003711710574361     
   31.500398555558423     
   35.659519390802579     
   325.65490635791184     
   20.678213640777027     
   51.628534358041975     
   67.197485706961842     
   1433.7982265317339     
   64.216105517066211     
   20.244148484321315     
   20.000023612670173     
   20.000009784276550     
   20.009368309841328     
   20.000310718400016     
   20.847925650282363     
   1515.3739083079449     
   20.000007654858145     
   20.000018689370393     
   20.000067063637481     
   20.010909048280265     
   20.000368252176138     
   20.000000719652800     
   739.67535201022110     
   571.28494458065404     
   20.026417192028141     
   20.005071992474960     
   20.001001903827166     
   20.360644931199335     
   20.000000731376709     
   20.030515027541174     
   1459.0023584172066     
   28.625266127444426     
   20.119939938293665     
   20.000245066268516     
   20.000315451582612     
   20.000210144516821     
   20.000000745079099     
   20.070931656292053     
   20.000000677475260     
   1381.0179909938888     
   1188.5596835965573     
   20.000000128409660     
   1251.3885099441136     
   20.000000820334229     
   20.081273924535065     
   1366.2465923515892     
   20.004447211123427     
   30.052568582473004     
   866.60952439206267     
   1389.0453007834114     
   20.000002769456994     
   24.198745467441338     
   20.000000257657643     
   20.000015293685248     
   20.000230196660429     
   20.000347302335911     
   20.000006243013193     
   20.000000383665235     
   20.000003057602100     
   20.000000316162669     
   919.57439601713247     
   21.962058799282715     
   20.000011972367158     
   656.67258572048900     
   20.000000277279330     
   20.000004842581010     
   20.875953352388496     
   20.372749506927441     
   20.000000163325343     
   20.000000240963857     
   1175.5467916414525     
   20.000000524169746     
   1288.7914096401323     
   1068.9932074767944     
   20.000310132923829     
   20.000243772259132     
   1478.0003244470006     
   29.524669175312745     
   330.09538806588813     
   20.017468833032204     
   20.000000363515195     
   20.000000203063944     
   20.000000829238871     
   778.16286481290217     
   20.000107825108532     
   20.000000537698536     
   20.000020518686977     
   20.000091490989330     
   20.002176104802924     
   1317.4663818987624     
   762.95107217330610     
   20.000000326604429     
   20.000000661921923     
   48.003089831784635     
   1198.3487963675868     
   20.000101018768955     
   20.000001201011564     
   1211.6932212220850     
   1287.9442499063018     
   20.002541400827603     
   20.000690708848808     
   1005.4672796678009     
   20.000000561777334     
   20.000002907498374     
   20.000001575049403     
   20.000001826208248     
   910.25523525836525     
   20.000813470371487     
   20.000002499435830     
   20.000003321164389     
   29.041711944260218     
   26.589869422429047     
   20.000001346343883     
   20.000000446253932     
   20.003530646740543     
   20.000001063446469     
   1139.1802108415970     
   20.000002135461081     
   1036.4811466289332     
   20.000001093865716     
   857.56543067446216     
   20.000000423576399     
   972.48169707993213     
   775.73748778363858     
   1030.8242212161019     
   1205.9033948015970     
   1033.5499617580808     
   20.000000986556088     
   20.000000466501053     
   20.000000845882621     
   869.98474698856410     
   836.83934796553399     
   759.09546473185571     
   731.66638048540472     
   1116.5117532572369     
   659.99010141979898     
   20.000093420152403     
   20.000001147897549     
   20.000004391889565     
   20.000003982773634     
   1231.5533643598305     
   885.74464426372901     
   889.78554043464248     
   963.13241538938917     
   626.48498533948703     
   717.30036686056087     
   20.000004345881589     
   20.000003398453902     
   20.000012800537831     
   557.50686857971095     
   827.88103698285863     
   555.35568267437827     
   20.000005232797804     
   20.000019936285621     
   20.000026763681124     
   625.29518708027683     
   467.59664368376639     
   761.09996243751550     
   20.000011195996965     
   607.69362941360987     
   647.07065507230425     
   20.000004572558634     
   20.000016876955687     
   655.87574846499774     
   20.000041016771782     
   20.000017263770072     
   533.61509735044842     
   20.000030704141061     
   20.000016879402594     
   20.000013329878769     
   20.000046924874795     
   560.71890263707621     
   453.28679087776874     
   476.76848001287613     
   20.000005332022784     
   384.30631172719762     
   405.90783991863248     
   20.000095253904600     
   20.000117542971186     
   20.000007211177188     
   20.000116262651062     
   709.59605323896915     
   20.000264034305452     
   20.000317680644464     
   20.000396853675031     
   20.000139155399701     
   296.43377867226053     
   20.000218717012498     
   20.000177238791341     
   399.06140307272403     
   20.000401367550655     
   20.000267129986490     
   20.000008297542944     
   20.000538620989811     
   20.000467571471734     
   20.000358259561462     
   20.000872703094775     
   20.000328525477599     
   20.001879452864816     
   20.002232575533839     
   20.005791240592266     
   20.003999639329184     
   20.003342236179620     
   20.004824063949883     
   20.008176408705197     
   20.023224865605165     
   20.009890317496172     
   20.008254804208278     
   20.016731157870403     
   20.011786007059502     
   20.062821714427603     
   20.027852889879345     
   20.023442590399689     
   20.046009788872553     
   20.032925227956113     
   20.033457821615990     
   20.014041411287256     
   20.046306203598803     
   20.036560380396590     
   20.026591544193405     
   20.024007034744002     
   20.161338533951813     
   20.074700648997062     
   20.063395506508176     
   20.120523778927954     
   20.087601234225190     
   20.038904160820476     
   386.86298010549660     
   20.396172298205183     
   20.190999134722055     
   20.163142440045185     
   20.299629365779268     
   20.221159894581977     
   20.102674633626577     
   20.291303454026458     
   20.228402808122780     
   20.156844807401551     
   20.212040481939844     
   20.927544351715600     
   20.464884647313315     
   20.400420478118285     
   20.712403134142129     
   20.535471935198995     
   20.258290906218605     
   20.171911513484478     
   22.074422972407703     
   21.079496834689550     
   20.937211464548806     
   21.616578901850083     
   21.234086339885579     
   20.618663641474530     
   21.463684352835742     
   21.184442105168880     
   20.848769812544401     
   21.112953356443409     
   24.436232720205798     
   22.394755349952444     
   22.095258402683548     
   23.509684044305498     
   22.713234985429057     
   21.414659083664247     
   237.83231160916290     
   272.38564433015824     
   248.70793204024810     
   20.916111999657069     
   25.703193319780020     
   131.93520979406739     
   289.05403469609797     
   143.42978395774088     
   129.72257523074637     
   147.31191604192801     
   29.086328663650448     
   270.70264201431064     
   237.66687852586796     
   290.49726168175221     
   25.082013026588061     
   24.479443611775018     
   72.426620786342795     
   231.87612886989413     
   122.70471349661280     
   68.261504970432313     
   146.76074712833253     
   23.091962740560344     
   110.83654579993160     
   235.55203873779914     
   26.482678029743411     
   27.296452306144911     
   322.39758065730712     
   198.58570273114998     
   178.15218414339097     
   124.98006035864177     
   41.431348910992632     
   105.65343018263147     
   34.372481606185367     
   33.131611181057472     
   79.972573368332363     
   42.706102255501129     
   329.55406021760950     
   30.323647676766026     
   29.169547278964259     
   246.01035974722362     
   34.326251414679099     
   236.46521702405502     
   82.008198323643228     
   154.37955505577762     
   41.341219281491590     
   171.65419915532311     
   171.94057302638205     
   168.05743566489247     
   231.60037714694340     
   31.464113820311319     
   152.26611780095791     
   95.658402380063606     
   95.359891186038098     
   294.19484091022355     
   92.942908074475739     
   327.21886747851568     
   61.715239558242274     
   69.045174675257286     
   79.166938021207969     
   209.68201959867224     
   340.50925077229510     
   46.296440864602623     
   181.86482915190234     
   269.54170680472259     
   20.000776402097728     
   72.198291969486746     
   77.231334503796290     
   315.05331687423597     
   20.002121487940922     
   20.001008416040129     
   61.604515943309430     
   32.963935486962107     
   83.633042556932821     
   132.35399988917712     
   440.62743202736277     
   318.03370223118503     
   231.93398168596281     
   263.77179155203265     
   144.48216226413555     
   92.948661067355999     
   61.711480629468859     
   43.198211870151411     
   32.498793349409191     
   26.441530289613873     
   23.219321600959944     
   21.533189401502984     
   20.702477271488384     
   20.306295613919492     
   20.127610171127507     
   20.049961800671696     
   20.019223764918333     
   20.006863855220661     
   20.002373996431711     
   20.001645043228635     
   20.001130954114757     
   20.001466544157424     
   20.000527524921331     
   20.000688843475643     
   20.000161966656382     
   20.000046935719840     
   20.000012908606145     
   20.000003390303839     
   20.000884556541934     
   20.000002742559442     
   20.000010841234392     
   20.000040658899572     
   20.000145342840280     
   20.000492037703367     
   20.001077581966012     
   20.001577127064810     
   20.001302718289107     
   20.002302922955710     
   20.001908524192196     
   20.006951146553249     
   20.019895453211806     
   20.054221970027946     
   20.140815621673092     
   20.348354692490460     
   20.821430043249055     
   21.849678550230557     
   23.982040895159965     
   28.209172838180400     
   36.243138067733312     
   50.953825778040589     
   77.043357643710578     
   89.427753287557636     
   82.538858357052263     
   104.37367651644938     
   121.84733774608905     
   196.89755154751137     
   319.81295601510283     
   517.53789302134169     
   89.770128845594357     
   201.60701175990317     
   212.97244862773834     
   146.61774386277557     
   20.000597871144105     
   104.56344209978546     
   278.06810089868958     
   59.374191966412894     
   113.05236989672913     
   45.310141767371483     
   20.000727568397817     
   51.378718242089498     
   96.947580219748701     
   250.74067710492679     
   62.572278030260655     
   345.26823055866970     
   42.227174368125716     
   68.664917885599635     
   154.97766475271919     
   112.52454056306937     
   55.231535268572237     
   106.95895944127233     
   46.771279585880151     
   48.442876414995084     
   43.135631679265074     
   59.542467361766413     
   52.422239718893962     
   125.81842520483758     
   278.38102439401462     
   167.84355219625644     
   111.90443332266410     
   47.532445808136337     
   34.081013509063311     
   58.367529335731241     
   107.42352470882194     
   70.822532983303745     
   53.914445873068750     
   67.034873229592449     
   37.916529805542730     
   91.937640818376224     
   40.438275555390049     
   41.056087171978554     
   34.860353454887893     
   38.565302591615627     
   37.185038152978983     
   144.30090123885381     
   41.332412101123168     
   146.76400782345885     
   31.487664787977003     
   36.531915768161895     
   91.370343044492884     
   33.732491722879850     
   25.572061900805636     
   31.669330525225146     
   92.730403685753430     
   83.455748254265828     
   96.857312095652560     
   30.882316745864333     
   27.064040294153159     
   179.94622280002233     
   25.974027659382404     
   211.22036846793193     
   29.435798838558323     
   28.766014207638190     
   22.669506987303265     
   26.024090192464115     
   27.480167352485001     
   202.18502307089730     
   25.629490970970576     
   26.912698579751122     
   25.702757598147144     
   25.928169858389918     
   22.888882218072833     
   25.426131148218523     
   23.394688958453521     
   24.674026902551208     
   24.274680264382706     
   23.667519100025373     
   21.211837791344593     
   22.718115030283414     
   23.338091409245568     
   22.845154448039573     
   22.586038390227472     
   21.336561211565108     
   21.568401302464903     
   22.209516382726321     
   22.006814375863023     
   21.705803714231838     
   20.535266450301421     
   21.238898535825886     
   21.542176273940324     
   21.302438560648675     
   21.176281514168103     
   20.587553324644727     
   20.702022434738385     
   20.997753635149351     
   20.899442190711447     
   20.760008939444862     
   20.223249886279042     
   20.540153587241708     
   20.681846042752053     
   20.572537732479830     
   20.513030133304056     
   20.250441027191737     
   20.297143641364197     
   20.431454995424179     