# vtk DataFile Version 2.0
 temperature
 ASCII
 DATASET UNSTRUCTURED_GRID
 POINTS         773  double
   0.0000000000000000        0.0000000000000000        0.0000000000000000     
   3.5000000000000000        0.0000000000000000        0.0000000000000000     
   3.5000000000000000        40.000000000000000        0.0000000000000000     
   0.0000000000000000        40.000000000000000        0.0000000000000000     
  0.43750000000000000        0.0000000000000000        0.0000000000000000     
  0.87500000000000000        0.0000000000000000        0.0000000000000000     
   1.3125000000000000        0.0000000000000000        0.0000000000000000     
   1.7500000000000000        0.0000000000000000        0.0000000000000000     
   2.1875000000000000        0.0000000000000000        0.0000000000000000     
   2.6250000000000000        0.0000000000000000        0.0000000000000000     
   3.0625000000000000        0.0000000000000000        0.0000000000000000     
   3.5000000000000000       0.50000000000000000        0.0000000000000000     
   3.5000000000000000        1.0000000000000000        0.0000000000000000     
   3.5000000000000000        1.5000000000000000        0.0000000000000000     
   3.5000000000000000        2.0000000000000000        0.0000000000000000     
   3.5000000000000000        2.5000000000000000        0.0000000000000000     
   3.5000000000000000        3.0000000000000000        0.0000000000000000     
   3.5000000000000000        3.5000000000000000        0.0000000000000000     
   3.5000000000000000        4.0000000000000000        0.0000000000000000     
   3.5000000000000000        4.5000000000000000        0.0000000000000000     
   3.5000000000000000        5.0000000000000000        0.0000000000000000     
   3.5000000000000000        5.5000000000000000        0.0000000000000000     
   3.5000000000000000        6.0000000000000000        0.0000000000000000     
   3.5000000000000000        6.5000000000000000        0.0000000000000000     
   3.5000000000000000        7.0000000000000000        0.0000000000000000     
   3.5000000000000000        7.5000000000000000        0.0000000000000000     
   3.5000000000000000        8.0000000000000000        0.0000000000000000     
   3.5000000000000000        8.5000000000000000        0.0000000000000000     
   3.5000000000000000        9.0000000000000000        0.0000000000000000     
   3.5000000000000000        9.5000000000000000        0.0000000000000000     
   3.5000000000000000        10.000000000000000        0.0000000000000000     
   3.5000000000000000        10.500000000000000        0.0000000000000000     
   3.5000000000000000        11.000000000000000        0.0000000000000000     
   3.5000000000000000        11.500000000000000        0.0000000000000000     
   3.5000000000000000        12.000000000000000        0.0000000000000000     
   3.5000000000000000        12.500000000000000        0.0000000000000000     
   3.5000000000000000        13.000000000000000        0.0000000000000000     
   3.5000000000000000        13.500000000000000        0.0000000000000000     
   3.5000000000000000        14.000000000000000        0.0000000000000000     
   3.5000000000000000        14.500000000000000        0.0000000000000000     
   3.5000000000000000        15.000000000000000        0.0000000000000000     
   3.5000000000000000        15.500000000000000        0.0000000000000000     
   3.5000000000000000        16.000000000000000        0.0000000000000000     
   3.5000000000000000        16.500000000000000        0.0000000000000000     
   3.5000000000000000        17.000000000000000        0.0000000000000000     
   3.5000000000000000        17.500000000000000        0.0000000000000000     
   3.5000000000000000        18.000000000000000        0.0000000000000000     
   3.5000000000000000        18.500000000000000        0.0000000000000000     
   3.5000000000000000        19.000000000000000        0.0000000000000000     
   3.5000000000000000        19.500000000000000        0.0000000000000000     
   3.5000000000000000        20.000000000000000        0.0000000000000000     
   3.5000000000000000        20.500000000000000        0.0000000000000000     
   3.5000000000000000        21.000000000000000        0.0000000000000000     
   3.5000000000000000        21.500000000000000        0.0000000000000000     
   3.5000000000000000        22.000000000000000        0.0000000000000000     
   3.5000000000000000        22.500000000000000        0.0000000000000000     
   3.5000000000000000        23.000000000000000        0.0000000000000000     
   3.5000000000000000        23.500000000000000        0.0000000000000000     
   3.5000000000000000        24.000000000000000        0.0000000000000000     
   3.5000000000000000        24.500000000000000        0.0000000000000000     
   3.5000000000000000        25.000000000000000        0.0000000000000000     
   3.5000000000000000        25.500000000000000        0.0000000000000000     
   3.5000000000000000        26.000000000000000        0.0000000000000000     
   3.5000000000000000        26.500000000000000        0.0000000000000000     
   3.5000000000000000        27.000000000000000        0.0000000000000000     
   3.5000000000000000        27.500000000000000        0.0000000000000000     
   3.5000000000000000        28.000000000000000        0.0000000000000000     
   3.5000000000000000        28.500000000000000        0.0000000000000000     
   3.5000000000000000        29.000000000000000        0.0000000000000000     
   3.5000000000000000        29.500000000000000        0.0000000000000000     
   3.5000000000000000        30.000000000000000        0.0000000000000000     
   3.5000000000000000        30.500000000000000        0.0000000000000000     
   3.5000000000000000        31.000000000000000        0.0000000000000000     
   3.5000000000000000        31.500000000000000        0.0000000000000000     
   3.5000000000000000        32.000000000000000        0.0000000000000000     
   3.5000000000000000        32.500000000000000        0.0000000000000000     
   3.5000000000000000        33.000000000000000        0.0000000000000000     
   3.5000000000000000        33.500000000000000        0.0000000000000000     
   3.5000000000000000        34.000000000000000        0.0000000000000000     
   3.5000000000000000        34.500000000000000        0.0000000000000000     
   3.5000000000000000        35.000000000000000        0.0000000000000000     
   3.5000000000000000        35.500000000000000        0.0000000000000000     
   3.5000000000000000        36.000000000000000        0.0000000000000000     
   3.5000000000000000        36.500000000000000        0.0000000000000000     
   3.5000000000000000        37.000000000000000        0.0000000000000000     
   3.5000000000000000        37.500000000000000        0.0000000000000000     
   3.5000000000000000        38.000000000000000        0.0000000000000000     
   3.5000000000000000        38.500000000000000        0.0000000000000000     
   3.5000000000000000        39.000000000000000        0.0000000000000000     
   3.5000000000000000        39.500000000000000        0.0000000000000000     
   3.0625000000000000        40.000000000000000        0.0000000000000000     
   2.6250000000000000        40.000000000000000        0.0000000000000000     
   2.1875000000000000        40.000000000000000        0.0000000000000000     
   1.7500000000000000        40.000000000000000        0.0000000000000000     
   1.3125000000000000        40.000000000000000        0.0000000000000000     
  0.87500000000000000        40.000000000000000        0.0000000000000000     
  0.43750000000000000        40.000000000000000        0.0000000000000000     
   0.0000000000000000        39.500000000000000        0.0000000000000000     
   0.0000000000000000        39.000000000000000        0.0000000000000000     
   0.0000000000000000        38.500000000000000        0.0000000000000000     
   0.0000000000000000        38.000000000000000        0.0000000000000000     
   0.0000000000000000        37.500000000000000        0.0000000000000000     
   0.0000000000000000        37.000000000000000        0.0000000000000000     
   0.0000000000000000        36.500000000000000        0.0000000000000000     
   0.0000000000000000        36.000000000000000        0.0000000000000000     
   0.0000000000000000        35.500000000000000        0.0000000000000000     
   0.0000000000000000        35.000000000000000        0.0000000000000000     
   0.0000000000000000        34.500000000000000        0.0000000000000000     
   0.0000000000000000        34.000000000000000        0.0000000000000000     
   0.0000000000000000        33.500000000000000        0.0000000000000000     
   0.0000000000000000        33.000000000000000        0.0000000000000000     
   0.0000000000000000        32.500000000000000        0.0000000000000000     
   0.0000000000000000        32.000000000000000        0.0000000000000000     
   0.0000000000000000        31.500000000000000        0.0000000000000000     
   0.0000000000000000        31.000000000000000        0.0000000000000000     
   0.0000000000000000        30.500000000000000        0.0000000000000000     
   0.0000000000000000        30.000000000000000        0.0000000000000000     
   0.0000000000000000        29.500000000000000        0.0000000000000000     
   0.0000000000000000        29.000000000000000        0.0000000000000000     
   0.0000000000000000        28.500000000000000        0.0000000000000000     
   0.0000000000000000        28.000000000000000        0.0000000000000000     
   0.0000000000000000        27.500000000000000        0.0000000000000000     
   0.0000000000000000        27.000000000000000        0.0000000000000000     
   0.0000000000000000        26.500000000000000        0.0000000000000000     
   0.0000000000000000        26.000000000000000        0.0000000000000000     
[...]
 CELL_DATA        1368
 SCALARS T double
 LOOKUP_TABLE default
   21.308081865336103     
   26.830481028407856     
   1678.0343768375951     
   47.689372027930673     
   20.000007540388737     
   22.436793953211055     
   1280.9353815697714     
   22.278453050912120     
   20.212212831766575     
   21.924255495217551     
   20.317223706735874     
   41.594025154280622     
   21.882155272675888     
   50.260634422780896     
   42.952985241904358     
   1213.9109532975983     
   1679.2256584689278     
   20.614822040673491     
   20.567009311170516     
   23.651758265962815     
   20.476709435585512     
   20.042995146022911     
   1738.4658447348379     
   20.067188885974101     
   21.128020842148537     
   26.660413916358600     
   20.452999622238796     
   22.814186440204736     
   21.494232744360467     
   20.244120314699259     
   23.546843832634522     
   20.000012658657397     
   26.029824041856667     
   27.241671821971405     
   27.014821218638549     
   20.000010916583044     
   20.939454305919686     
   20.135579762901759     
   20.368227028972559     
   20.123853738703744     
   20.095636030091423     
   21.812891953231595     
   20.102343042717226     
   49.224478227159125     
   20.717859550174271     
   448.84229763452151     
   440.91988326747202     
   21.613819857224527     
   22.025662392318697     
   700.64120388235199     
   705.70320147880454     
   20.268630718658038     
   20.919796839441091     
   20.000010288119569     
   1709.8379449820120     
   20.000009082810855     
   20.000022018396756     
   20.041618424824563     
   20.024390464298669     
   20.050759786600452     
   20.000027373528471     
   47.354460402760452     
   20.078067110185639     
   20.000048896847137     
   23.192665940113351     
   23.908960368152499     
   20.210907208110758     
   23.711583926513899     
   20.384010671985227     
   20.491831166041099     
   20.000018733629183     
   1678.3646631894026     
   20.000032395939218     
   20.443156586391826     
   20.158985145477541     
   20.210703318613778     
   20.000067709343778     
   20.000147463551649     
   20.000015743785447     
   425.10562410270393     
   20.056067918416787     
   20.022564389799296     
   264.29641957156178     
   20.014503189344826     
   167.61155880540881     
   20.810454290455532     
   21.019368505700960     
   421.13548703999379     
   20.035124729898723     
   864.16820538081936     
   20.079669714923359     
   20.105159109571559     
   71.505445682111471     
   20.000427850739438     
   807.95830444996398     
   20.007066290833237     
   49.548414957410763     
   20.000201175421552     
   20.007996073266018     
   20.000084028254534     
   262.50171311958150     
   20.000057777885292     
   223.56690141310477     
   227.21530552545954     
   20.093986299322619     
   20.029664395819932     
   20.000015307772269     
   20.197026749267597     
   20.000013161694596     
   20.000097604793147     
   30.566233896347910     
   533.48565473876920     
   29.882877136703598     
   20.004283579202106     
   20.000040504006122     
   20.000007547192993     
   143.32270639875856     
   25.288163102977666     
   145.44593919551204     
   20.002214774168088     
   20.000058261992866     
   20.003843474208825     
   20.023461079180837     
   166.50452549476594     
   22.754925584602198     
   322.72286145897016     
   20.180474719511338     
   20.229746624360519     
   20.017658687933203     
   20.988097187837546     
   20.000018877926141     
   20.005181373740605     
   544.29439116142510     
   21.385679961838406     
   20.000172959939089     
   20.000578254216471     
   20.672341112085309     
   94.216566214654733     
   1322.8398323955955     
   95.668144246308245     
   1010.9196926486105     
   488.28936864384946     
   203.84064194757792     
   20.005838849369301     
   20.013067643798319     
   20.001651779425256     
   511.25899820668565     
   20.009643875935595     
   20.000122915688209     
   20.000174643432423     
   20.002165575161275     
   326.94286953550812     
   20.012944366111046     
   63.864546849127599     
   64.605057692438166     
   20.000247739127268     
   20.001431548134846     
   130.00070109073459     
   20.018150803915237     
   20.000496908870904     
   20.000286843553607     
   20.000039571656952     
   42.984279411558013     
   71.041260327453884     
   20.039601123386237     
   23.020541167001547     
   20.000503018915964     
   20.000007004739487     
   252.99271771539850     
   206.42434761082794     
   20.003130079681128     
   20.001025218635498     
   20.000357278977656     
   49.295324491146324     
   57.656253523630980     
   20.001136106976418     
   1015.9933239017070     
   20.780734362514913     
   131.25780159230439     
   20.000706982238700     
   171.89606264316086     
   163.20370411047972     
   41.340081128276665     
   20.000809945486274     
   37.626324390970453     
   20.002037504483134     
   20.019501617332743     
   20.026214934275679     
   64.053265467068329     
   20.000014776017522     
   268.63057425572242     
   20.174557535206901     
   27.996847725254284     
   28.001226546902679     
   32.531590628767496     
   20.000007921796204     
   586.13159174401017     
   20.002169152877311     
   20.000013095806487     
   20.000994969524470     
   29.675244254928039     
   20.001391921582055     
   111.72363193785162     
   20.010778807954846     
   20.014523587290931     
   20.004194291674978     
   106.24371282616463     
   25.277361913426777     
   20.001133532573458     
   20.000015164309701     
   20.001585543101598     
   20.000025406222996     
   26.759331237413512     
   20.000006944065170     
   20.004782989608337     
   20.000732133281197     
   20.007821457749738     
   20.010725341147765     
   20.224345369978113     
   20.001930659947476     
   25.174425648601300     
   20.000017409970031     
   20.016830146842427     
   61.704149061931794     
   20.007937638516069     
   58.258388701832033     
   20.008928237413635     
   20.000521694782734     
   20.000010259634500     
   20.000603363025864     
   20.002746009432059     
   20.000021571426021     
   22.694996216832106     
   20.000120055607180     
   23.559134168355541     
   20.000430124458784     
   20.019421968498985     
   20.000011362898363     
   21.355049700678553     
   20.022034644147574     
   35.736001674869819     
   41.640082145276942     
   335.91893807703730     
   21.426678008769070     
   58.157783058247517     
   74.559953255409170     
   1436.8476396112503     
   71.204145117636827     
   20.656709353800434     
   20.000369970187563     
   20.000183695190607     
   20.046550978802088     
   20.003036705460786     
   21.816028238323568     
   1518.9067957129157     
   20.000149800887169     
   20.000304484038697     
   20.000842316104745     
   20.052456057910142     
   20.003464819705574     
   20.000021606975675     
   747.67595229043138     
   577.00529155377683     
   20.107489441315572     
   20.026079040389799     
   20.007148622336405     
   20.896331713210522     
   20.000024401514917     
   20.120409216312854     
   1462.3067669279355     
   32.870163871679260     
   20.342390441095766     
   20.002502739580184     
   20.002727605489913     
   20.001972680815630     
   20.000023592130709     
   20.239452236131033     
   20.000021430275133     
   1386.2934796068148     
   1189.8891292144431     
   20.000005418960384     
   1256.0886959698187     
   20.000024641601808     
   20.266652431262170     
   1370.3713921068691     
   20.023692575758634     
   33.584981661562068     
   872.17777354972793     
   1393.3780202991964     
   20.000065441251383     
   26.970811697077643     
   20.000010870969145     
   20.000261874709999     
   20.002253767379784     
   20.003129626506848     
   20.000128475960377     
   20.000014077593789     
   20.000072265256378     
   20.000011585447169     
   925.65356862755527     
   23.674119163106607     
   20.000213614529386     
   664.87058981936480     
   20.000010157403949     
   20.000104034068563     
   21.876640631124243     
   20.926736102521879     
   20.000007141304167     
   20.000009733956272     
   1181.0787557508650     
   20.000016533841887     
   1292.4254367336807     
   1075.0434982438171     
   20.002799725938942     
   20.002284352169536     
   1482.4512808471311     
   32.971720060589085     
   339.97678472955863     
   20.071460186282199     
   20.000013951768601     
   20.000007808983938     
   20.000027600356901     
   785.30992744844161     
   20.001191831829171     
   20.000018809304866     
   20.000350886146283     
   20.001056457541733     
   20.014402285459763     
   1322.5447834137351     
   765.98601710105561     
   20.000011371312709     
   20.000023106153851     
   54.257362032818612     
   1205.2722745951917     
   20.001167811207587     
   20.000034420695496     
   1216.1077065111442     
   1294.0902254678012     
   20.016256611357722     
   20.005746941352918     
   1012.3495322413856     
   20.000019702328185     
   20.000065366627361     
   20.000043071644132     
   20.000045187787912     
   917.57599126266962     
   20.006528315801482     
   20.000062135048317     
   20.000074673123510     
   32.977596890439777     
   29.558580708800001     
   20.000034903209727     
   20.000014809705579     
   20.019460795098748     
   20.000033628745186     
   1145.7403418842159     
   20.000050323674060     
   1043.6478211645758     
   20.000031324214195     
   865.69548928004303     
   20.000014781086275     
   980.50976128643106     
   784.22058377100996     
   1036.5035954243469     
   1211.6630901344713     
   1042.0122689071115     
   20.000031308730307     
   20.000016283065733     
   20.000024151432967     
   876.85352515594980     
   846.10613392855259     
   768.76461002763529     
   740.91518510445451     
   1124.2378876828859     
   669.48869504611935     
   20.001032726361544     
   20.000031283424732     
   20.000094352679806     
   20.000089944522440     
   1234.9143979855319     
   895.62616415880984     
   898.29307463847965     
   972.31685465915098     
   635.42470529998536     
   727.64134482596671     
   20.000102626763859     
   20.000084387993095     
   20.000218047202512     
   570.52962678875429     
   838.37512914510978     
   568.22689479652229     
   20.000107089078607     
   20.000296816924980     
   20.000381457221135     
   635.48806116159403     
   477.37819999605159     
   772.19190620101574     
   20.000190702331043     
   620.31288027378559     
   657.72218826893845     
   20.000093602578261     
   20.000274917307724     
   667.98399870391825     
   20.000536001620084     
   20.000269125107561     
   544.63191718287533     
   20.000418695374542     
   20.000301533592332     
   20.000249790421485     
   20.000613310925882     
   571.07861724616521     
   465.04473879543025     
   487.82973275254176     
   20.000104054847942     
   396.59032735849786     
   417.58490552178279     
   20.001195001747480     
   20.001412046370564     
   20.000134483180570     
   20.001347554174782     
   721.23884657869928     
   20.002685718054746     
   20.003106587100380     
   20.003717873150382     
   20.001544902903948     
   304.75351901855964     
   20.002318273638274     
   20.001958883882793     
   411.81943541211012     
   20.003761082044591     
   20.002717505527663     
   20.000147892057161     
   20.004299876439344     
   20.003734886497920     
   20.002972250177997     
   20.006979154525794     
   20.003207326642752     
   20.012896476278726     
   20.014775570874527     
   20.031901708581831     
   20.023693481892266     
   20.020525106581264     
   20.027560828902594     
   20.042002193687317     
   20.097489131541323     
   20.049104335043769     
   20.042425194843517     
   20.074978574185256     
   20.056519960344374     
   20.218312302784447     
   20.113248080488464     
   20.098451000366065     
   20.169941137170142     
   20.129584709885208     
   20.116328146837464     
   20.065130248004582     
   20.151379751409081     
   20.123095700005479     
   20.095186117019729     
   20.088891473052115     
   20.470638878052981     
   20.252012114801349     
   20.220415816691933     
   20.371789562478067     
   20.286700275824035     
   20.148422909908280     
   400.44396181753996     
   20.982814829082820     
   20.541772549182060     
   20.475975009405118     
   20.782996742803668     
   20.610467495553092     
   20.326449099976617     
   20.684273681795872     
   20.551550618397439     
   20.410652506777335     
   20.526166113051794     
   21.983958516812844     
   21.124087890322169     
   20.993540285842727     
   21.597810889839391     
   21.262258866773319     
   20.693627021496386     
   20.436931815815953     
   23.879071119652405     
   22.255818826618608     
   22.005042957256489     
   23.155372099789506     
   22.519853580293645     
   21.422778467005930     
   22.620470449634311     
   22.166147298019347     
   21.659880294565518     
   22.081487210764212     
   27.355022891505442     
   24.385468922041909     
   23.918936482124433     
   26.045033436210726     
   24.867531607579565     
   22.824674647086425     
   249.64156232403656     
   286.10020346637901     
   260.00265722502718     
   21.747495529959078     
   29.117482642121516     
   142.70838365111004     
   302.41651482070807     
   156.23257007748552     
   142.01652551715483     
   158.67499956120227     
   33.545655092803202     
   280.92524393239376     
   251.71808983787344     
   301.65566823764271     
   28.270772717134090     
   27.428347233820237     
   81.248016932465532     
   245.55340644984170     
   135.00804914389272     
   76.350188745030366     
   159.92281149644356     
   25.435560233606992     
   122.56923545681833     
   245.36959987231319     
   30.172211166015988     
   31.246105793114449     
   335.96800559982034     
   212.11279164809656     
   191.23773957709244     
   136.73382325498659     
   47.672650188875416     
   115.19609645468054     
   40.139105360440581     
   38.421927939322508     
   89.438457377446056     
   48.978041902086730     
   341.01194281750668     
   35.145434947847164     
   33.673731425381106     
   259.43962736347436     
   39.806291152607095     
   249.31149098388681     
   92.483333315375290     
   165.44039309738011     
   47.214764278232828     
   184.19030101945825     
   183.51756023759859     
   181.28917156964610     
   242.11589128286874     
   36.566876171158356     
   165.02391905498044     
   107.58026882882851     
   106.50934971035525     
   306.58725348184691     
   101.75572499316148     
   339.83315279800422     
   69.187629331042032     
   77.872649348354471     
   89.154731926650840     
   223.03120169750835     
   353.69718111148291     
   53.517176478560053     
   194.19436837214039     
   276.11748599112127     
   20.005520190675895     
   81.593906980469072     
   87.555857955298563     
   322.03619141554952     
   20.012554653761896     
   20.006912756422889     
   70.625770826970552     
   38.428315298763614     
   93.682583683019288     
   144.02153812115012     
   445.77093311447862     
   324.24723567801107     
   238.89072331231108     
   271.13810014924394     
   151.73610035481366     
   99.885364127236969     
   67.798754499720317     
   48.168442458473223     
   36.301464536246741     
   29.148255585316551     
   25.048463349381635     
   22.691185884907334     
   21.400593062029838     
   20.703497031612358     
   20.342008906055465     
   20.158639285140325     
   20.073160400181045     
   20.031760113127479     
   20.013538773065804     
   20.010083740913650     
   20.007456703521711     
   20.009328849878607     
   20.004047736664820     
   20.005094373796741     
   20.001577757595882     
   20.000587159060164     
   20.000210106264735     
   20.000072616237745     
   20.007072072502098     
   20.000071238033946     
   20.000212104447428     
   20.000606788153497     
   20.001673333734274     
   20.004428321777205     
   20.008286709081037     
   20.011240264852354     
   20.009639006262486     
   20.015223421544782     
   20.013087358946308     
   20.036967533553550     
   20.086281160024484     
   20.194263456844848     
   20.422329215659261     
   20.886554251785821     
   21.798496947410573     
   23.532689327053657     
   26.727825495493665     
   32.443127062038656     
   42.401504954545189     
   59.388461543417158     
   87.888723872953491     
   101.04469157299313     
   93.725006688353375     
   116.72722307020132     
   134.86208428841948     
   211.36351354759117     
   334.53070338543154     
   530.96354351165132     
   100.81177840350244     
   214.36394436948336     
   225.44151733564655     
   158.81989277989862     
   20.005170650788020     
   116.26705076995792     
   290.87458208150292     
   67.923809188786279     
   124.24485983227925     
   52.668847499377037     
   20.006053173509695     
   59.490171028984626     
   107.58728731295528     
   263.25337348629449     
   71.265075654955893     
   357.40260721474158     
   49.066464808663667     
   77.987200276490015     
   167.03468707481858     
   122.88675136331965     
   63.286801961053435     
   118.18439842845902     
   53.696854267043953     
   55.808594604965059     
   49.845638120206651     
   68.644679816814687     
   60.349852452444622     
   136.81358592140765     
   290.02067728987384     
   178.18804780383502     
   124.53592602150800     
   55.090697522838894     
   39.177082229752862     
   67.206727415349377     
   117.92351306327129     
   80.585199765526099     
   62.207118043220298     
   76.629975047320912     
   44.068678538804242     
   102.57289683625028     
   47.078616156864463     
   47.895001785676804     
   40.253238507454796     
   44.599167069282245     
   43.078245783426944     
   154.57795189491682     
   47.890627969807461     
   156.49782667881999     
   36.363332679781500     
   42.500648390409090     
   100.59440694791157     
   38.978694258141843     
   28.603696816762010     
   36.407489833311516     
   102.77204020100301     
   92.833949778124392     
   106.74892621636073     
   35.496931301080934     
   30.555900411150255     
   191.19536045413957     
   29.090066325102530     
   222.57637723818533     
   33.658834632387318     
   32.874627599581267     
   24.606369765552913     
   29.000300401619054     
   31.187519581199815     
   213.93756521109609     
   28.544415392398257     
   30.499793903610907     
   28.966462636671718     
   29.166162431846640     
   24.897426446648343     
   28.532716427401972     
   25.644427934345941     
   27.485516243063230     
   26.967775514230762     
   26.092302297852946     
   22.370100169672870     
   24.787465181580409     
   25.653683749507145     
   24.915991475114133     
   24.555145206274069     
   22.558255369182696     
   22.941736694843001     
   23.972851847772400     
   23.681260436091819     
   23.196885261374273     
   21.203486478519956     
   22.479220415066798     
   22.953597278109477     
   22.551351874006574     
   22.354221948196948     
   21.292032643470986     
   21.506895644088239     
   22.043161403978718     
   21.883575040688040     
   21.629550358179742     
   20.584995582180163     
   21.245396217680447     
   21.497701861599150     
   21.288974825354806     
   21.182945235802851     
   20.638666425328040     
   20.739879552125231     
   21.020283393535202     