# vtk DataFile Version 2.0
 temperature
 ASCII
 DATASET UNSTRUCTURED_GRID
 POINTS         773  double
   0.0000000000000000        0.0000000000000000        0.0000000000000000     
   3.5000000000000000        0.0000000000000000        0.0000000000000000     
   3.5000000000000000        40.000000000000000        0.0000000000000000     
   0.0000000000000000        40.000000000000000        0.0000000000000000     
  0.43750000000000000        0.0000000000000000        0.0000000000000000     
  0.87500000000000000        0.0000000000000000        0.0000000000000000     
   1.3125000000000000        0.0000000000000000        0.0000000000000000     
   1.7500000000000000        0.0000000000000000        0.0000000000000000     
   2.1875000000000000        0.0000000000000000        0.0000000000000000     
   2.6250000000000000        0.0000000000000000        0.0000000000000000     
   3.0625000000000000        0.0000000000000000        0.0000000000000000     
   3.5000000000000000       0.50000000000000000        0.0000000000000000     
   3.5000000000000000        1.0000000000000000        0.0000000000000000     
   3.5000000000000000        1.5000000000000000        0.0000000000000000     
   3.5000000000000000        2.0000000000000000        0.0000000000000000     
   3.5000000000000000        2.5000000000000000        0.0000000000000000     
   3.5000000000000000        3.0000000000000000        0.0000000000000000     
   3.5000000000000000        3.5000000000000000        0.0000000000000000     
   3.5000000000000000        4.0000000000000000        0.0000000000000000     
   3.5000000000000000        4.5000000000000000        0.0000000000000000     
   3.5000000000000000        5.0000000000000000        0.0000000000000000     
   3.5000000000000000        5.5000000000000000        0.0000000000000000     
   3.5000000000000000        6.0000000000000000        0.0000000000000000     
   3.5000000000000000        6.5000000000000000        0.0000000000000000     
   3.5000000000000000        7.0000000000000000        0.0000000000000000     
   3.5000000000000000        7.5000000000000000        0.0000000000000000     
   3.5000000000000000        8.0000000000000000        0.0000000000000000     
   3.5000000000000000        8.5000000000000000        0.0000000000000000     
   3.5000000000000000        9.0000000000000000        0.0000000000000000     
   3.5000000000000000        9.5000000000000000        0.0000000000000000     
   3.5000000000000000        10.000000000000000        0.0000000000000000     
   3.5000000000000000        10.500000000000000        0.0000000000000000     
   3.5000000000000000        11.000000000000000        0.0000000000000000     
   3.5000000000000000        11.500000000000000        0.0000000000000000     
   3.5000000000000000        12.000000000000000        0.0000000000000000     
   3.5000000000000000        12.500000000000000        0.0000000000000000     
   3.5000000000000000        13.000000000000000        0.0000000000000000     
   3.5000000000000000        13.500000000000000        0.0000000000000000     
   3.5000000000000000        14.000000000000000        0.0000000000000000     
   3.5000000000000000        14.500000000000000        0.0000000000000000     
   3.5000000000000000        15.000000000000000        0.0000000000000000     
   3.5000000000000000        15.500000000000000        0.0000000000000000     
   3.5000000000000000        16.000000000000000        0.0000000000000000     
   3.5000000000000000        16.500000000000000        0.0000000000000000     
   3.5000000000000000        17.000000000000000        0.0000000000000000     
   3.5000000000000000        17.500000000000000        0.0000000000000000     
   3.5000000000000000        18.000000000000000        0.0000000000000000     
   3.5000000000000000        18.500000000000000        0.0000000000000000     
   3.5000000000000000        19.000000000000000        0.0000000000000000     
   3.5000000000000000        19.500000000000000        0.0000000000000000     
   3.5000000000000000        20.000000000000000        0.0000000000000000     
   3.5000000000000000        20.500000000000000        0.0000000000000000     
   3.5000000000000000        21.000000000000000        0.0000000000000000     
   3.5000000000000000        21.500000000000000        0.0000000000000000     
   3.5000000000000000        22.000000000000000        0.0000000000000000     
   3.5000000000000000        22.500000000000000        0.0000000000000000     
   3.5000000000000000        23.000000000000000        0.0000000000000000     
   3.5000000000000000        23.500000000000000        0.0000000000000000     
   3.5000000000000000        24.000000000000000        0.0000000000000000     
   3.5000000000000000        24.500000000000000        0.0000000000000000     
   3.5000000000000000        25.000000000000000        0.0000000000000000     
   3.5000000000000000        25.500000000000000        0.0000000000000000     
   3.5000000000000000        26.000000000000000        0.0000000000000000     
   3.5000000000000000        26.500000000000000        0.0000000000000000     
   3.5000000000000000        27.000000000000000        0.0000000000000000     
   3.5000000000000000        27.500000000000000        0.0000000000000000     
   3.5000000000000000        28.000000000000000        0.0000000000000000     
   3.5000000000000000        28.500000000000000        0.0000000000000000     
   3.5000000000000000        29.000000000000000        0.0000000000000000     
   3.5000000000000000        29.500000000000000        0.0000000000000000     
   3.5000000000000000        30.000000000000000        0.0000000000000000     
   3.5000000000000000        30.500000000000000        0.0000000000000000     
   3.5000000000000000        31.000000000000000        0.0000000000000000     
   3.5000000000000000        31.500000000000000        0.0000000000000000     
   3.5000000000000000        32.000000000000000        0.0000000000000000     
   3.5000000000000000        32.500000000000000        0.0000000000000000     
   3.5000000000000000        33.000000000000000        0.0000000000000000     
   3.5000000000000000        33.500000000000000        0.0000000000000000     
   3.5000000000000000        34.000000000000000        0.0000000000000000     
   3.5000000000000000        34.500000000000000        0.0000000000000000     
   3.5000000000000000        35.000000000000000        0.0000000000000000     
   3.5000000000000000        35.500000000000000        0.0000000000000000     
   3.5000000000000000        36.000000000000000        0.0000000000000000     
   3.5000000000000000        36.500000000000000        0.0000000000000000     
   3.5000000000000000        37.000000000000000        0.0000000000000000     
   3.5000000000000000        37.500000000000000        0.0000000000000000     
   3.5000000000000000        38.000000000000000        0.0000000000000000     
   3.5000000000000000        38.500000000000000        0.0000000000000000     
   3.5000000000000000        39.000000000000000        0.0000000000000000     
   3.5000000000000000        39.500000000000000        0.0000000000000000     
   3.0625000000000000        40.000000000000000        0.0000000000000000     
   2.6250000000000000        40.000000000000000        0.0000000000000000     
   2.1875000000000000        40.000000000000000        0.0000000000000000     
   1.7500000000000000        40.000000000000000        0.0000000000000000     
   1.3125000000000000        40.000000000000000        0.0000000000000000     
  0.87500000000000000        40.000000000000000        0.0000000000000000     
  0.43750000000000000        40.000000000000000        0.0000000000000000     
   0.0000000000000000        39.500000000000000        0.0000000000000000     
   0.0000000000000000        39.000000000000000        0.0000000000000000     
   0.0000000000000000        38.500000000000000        0.0000000000000000     
   0.0000000000000000        38.000000000000000        0.0000000000000000     
   0.0000000000000000        37.500000000000000        0.0000000000000000     
   0.0000000000000000        37.000000000000000        0.0000000000000000     
   0.0000000000000000        36.500000000000000        0.0000000000000000     
   0.0000000000000000        36.000000000000000        0.0000000000000000     
   0.0000000000000000        35.500000000000000        0.0000000000000000     
   0.0000000000000000        35.000000000000000        0.0000000000000000     
   0.0000000000000000        34.500000000000000        0.0000000000000000     
   0.0000000000000000        34.000000000000000        0.0000000000000000     
   0.0000000000000000        33.500000000000000        0.0000000000000000     
   0.0000000000000000        33.000000000000000        0.0000000000000000     
   0.0000000000000000        32.500000000000000        0.0000000000000000     
   0.0000000000000000        32.000000000000000        0.0000000000000000     
   0.0000000000000000        31.500000000000000        0.0000000000000000     
   0.0000000000000000        31.000000000000000        0.0000000000000000     
   0.0000000000000000        30.500000000000000        0.0000000000000000     
   0.0000000000000000        30.000000000000000        0.0000000000000000     
   0.0000000000000000        29.500000000000000        0.0000000000000000     
   0.0000000000000000        29.000000000000000        0.0000000000000000     
   0.0000000000000000        28.500000000000000        0.0000000000000000     
   0.0000000000000000        28.000000000000000        0.0000000000000000     
   0.0000000000000000        27.500000000000000        0.0000000000000000     
   0.0000000000000000        27.000000000000000        0.0000000000000000     
   0.0000000000000000        26.500000000000000        0.0000000000000000     
   0.0000000000000000        26.000000000000000        0.0000000000000000     
[...]
 CELL_DATA        1368
 SCALARS T double
 LOOKUP_TABLE default
   21.036595978933192     
   25.878757419997878     
   1677.2828032697869     
   45.969747137393021     
   20.000002100453958     
   21.993154248810068     
   1280.2746301799177     
   21.849363991541093     
   20.148211901678724     
   21.550454838495988     
   20.227466681495446     
   39.875181299781637     
   21.493418518554225     
   48.370130974905287     
   41.197171776440541     
   1213.2348287812033     
   1678.4559574509119     
   20.457744847106440     
   20.418006712573689     
   23.025440834028821     
   20.348402978877385     
   20.026520237129748     
   1737.8746233516456     
   20.042741117136146     
   20.889195711260356     
   25.772214595117173     
   20.324936206149264     
   22.316213851307367     
   21.184174501727494     
   20.171631982442143     
   22.961279302903456     
   20.000003648914088     
   25.161009637299717     
   26.263923450477183     
   26.105273876194961     
   20.000003112444610     
   20.710485147201943     
   20.090123427612227     
   20.264158648196229     
   20.081400165372298     
   20.060850794576673     
   21.449213182491818     
   20.066568503495464     
   47.227445829471485     
   20.538561167870000     
   444.70106060671600     
   436.83945254659483     
   21.270410108546027     
   21.619494436297114     
   699.18532473350854     
   704.09474436014079     
   20.191228025361220     
   20.702136735751573     
   20.000002927128953     
   1709.3393695711002     
   20.000002564142616     
   20.000006661191968     
   20.025077279204233     
   20.014375024644171     
   20.031578528788316     
   20.000008436384128     
   45.500783800909552     
   20.049683819644518     
   20.000015846963514     
   22.628476834500468     
   23.258671969059478     
   20.142806794225610     
   23.111611716428182     
   20.272870685237294     
   20.355991899001641     
   20.000005582763773     
   1677.7763827034391     
   20.000010144748973     
   20.320850649935146     
   20.106609986833604     
   20.144316380107171     
   20.000022649548306     
   20.000052729348642     
   20.000004614371456     
   420.81295897315732     
   20.035355752548245     
   20.013140504865845     
   259.76292635070899     
   20.008047403384346     
   163.26381972942855     
   20.608115890835300     
   20.777270850927835     
   416.86803125826737     
   20.020956953790225     
   862.89835317231780     
   20.050126005063344     
   20.067650286788346     
   68.311628118355785     
   20.000168069386387     
   806.71045146251072     
   20.003630909928976     
   47.065434235158364     
   20.000074123454187     
   20.004221942369494     
   20.000028627112741     
   258.00223139585665     
   20.000019039073134     
   220.96371320200060     
   224.44851443416735     
   20.060427977408541     
   20.017670301447225     
   20.000004487102267     
   20.136358702766266     
   20.000003801785414     
   20.000033727976991     
   29.410276836891285     
   529.86843057576050     
   28.561106694593903     
   20.002116621094768     
   20.000012912051947     
   20.000002105391641     
   140.67052341324842     
   24.412997226862345     
   142.65260563874060     
   20.001006385078806     
   20.000019187323435     
   20.001898991777249     
   20.013319671188288     
   162.19045389502691     
   22.204461325305154     
   318.38464379155079     
   20.121077241327569     
   20.157006651091478     
   20.009914056585494     
   20.759604994600785     
   20.000005622408803     
   20.002592862286352     
   540.58798603069260     
   21.057698365356320     
   20.000062827583680     
   20.000233808389776     
   20.487046188801965     
   91.742463669182285     
   1322.0734615184431     
   93.064182129594457     
   1009.9910156361225     
   486.29885397367536     
   199.49731518027457     
   20.002962980518671     
   20.007156729603654     
   20.000762273709960     
   509.22470053052132     
   20.005150403821347     
   20.000043263146139     
   20.000063412927005     
   20.000984359522779     
   322.53773805306895     
   20.006996504596582     
   61.726864594794733     
   62.378801663565234     
   20.000092888896035     
   20.000660742694222     
   126.00569446917078     
   20.010447462896806     
   20.000198094180771     
   20.000109047112861     
   20.000012606309710     
   41.488824915645715     
   67.875390241152971     
   20.024159257657804     
   22.506217508243196     
   20.000200491898113     
   20.000001948907578     
   250.43032954376224     
   202.01266797613800     
   20.001526955938147     
   20.000446318650997     
   20.000138187776347     
   46.833863218257733     
   54.920081675395686     
   20.000517418421108     
   1014.9657166080906     
   20.591655055788905     
   127.20509505671811     
   20.000290650034028     
   169.10117879201414     
   160.52254257199996     
   39.278629844888954     
   20.000337253312036     
   36.051810690192724     
   20.000952825347536     
   20.010943004287554     
   20.015071890873273     
   61.523265366693124     
   20.000004329615237     
   265.95856042285681     
   20.118413796665330     
   27.050375802744739     
   27.045628819778045     
   31.041380817462308     
   20.000002286224525     
   584.25652756844545     
   20.001044552362611     
   20.000003843722713     
   20.000421425525918     
   28.381163248265761     
   20.000607036987230     
   109.04055084541795     
   20.005756893538248     
   20.007952493039458     
   20.002018258388919     
   103.68372582885276     
   24.509531571778737     
   20.000486029201461     
   20.000004519944614     
   20.000699940761756     
   20.000007816960952     
   25.749869511314309     
   20.000002003062363     
   20.002330744418760     
   20.000309588068717     
   20.003968841490060     
   20.005805511707941     
   20.154750598855408     
   20.000866238857050     
   24.318009814199602     
   20.000005181640422     
   20.009569014954067     
   59.231145925056659     
   20.004132567902342     
   55.476235247914971     
   20.004588092253538     
   20.000214173069892     
   20.000003012058691     
   20.000251795829932     
   20.001301336820976     
   20.000006531967841     
   22.156229475760632     
   20.000042225362883     
   22.909614690323622     
   20.000174263122204     
   20.010639772138617     
   20.000003336129225     
   21.034147450927357     
   20.012215727573579     
   34.258826717335346     
   39.545913263429263     
   332.82206289754714     
   21.121973398845309     
   56.004376823523735     
   72.182788009319623     
   1435.9515477146654     
   68.945841279873008     
   20.475694936991832     
   20.000147388023272     
   20.000068798401010     
   20.027412417592775     
   20.001421033315765     
   21.419634503115617     
   1517.8685939237710     
   20.000055314974617     
   20.000119695054575     
   20.000361854507741     
   20.031235121973349     
   20.001642456547287     
   20.000006893136941     
   745.30592032030438     
   575.31145347174424     
   20.067726302708905     
   20.015179992561521     
   20.003723079223153     
   20.666697689861550     
   20.000007510453926     
   20.076657874814259     
   1461.3356801080126     
   31.337618510897190     
   20.243106440221062     
   20.001153733977933     
   20.001330685908769     
   20.000935840363095     
   20.000007391396643     
   20.160689593425662     
   20.000006716350708     
   1384.7414927845575     
   1189.4986734897584     
   20.000001542368430     
   1254.7056635124716     
   20.000007859914511     
   20.180670685228872     
   1369.1584865049608     
   20.013626002183358     
   32.359385352375007     
   870.53490180046549     
   1392.1039373256149     
   20.000022657069024     
   25.929371147245686     
   20.000003094313296     
   20.000101210082555     
   20.001053973910007     
   20.001505504144127     
   20.000046631568605     
   20.000004196183962     
   20.000025017524866     
   20.000003454829574     
   923.85978533122318     
   23.003306707383452     
   20.000081407106812     
   662.43811887622633     
   20.000003029283704     
   20.000037209782967     
   21.466865895974962     
   20.689233351052053     
   20.000002009501916     
   20.000002810321664     
   1179.4496475888757     
   20.000005186702285     
   1291.3568788541106     
   1073.2600855049518     
   20.001345981419409     
   20.001084338901830     
   1481.1427442137287     
   31.771860748845782     
   336.99901702940400     
   20.044943771151896     
   20.000004096704085     
   20.000002291431862     
   20.000008502029250     
   783.19588500201155     
   20.000534795648178     
   20.000005697361171     
   20.000135676057496     
   20.000467044026543     
   20.007695059882810     
   1321.0505456834831     
   765.09244260606556     
   20.000003449752011     
   20.000007003906653     
   52.181012616821747     
   1203.2318964255835     
   20.000516068190350     
   20.000011156546186     
   1214.8087712982851     
   1292.2806552282857     
   20.008786874565157     
   20.002840708299438     
   1010.3187237274740     
   20.000005962652775     
   20.000023019401251     
   20.000014185953351     
   20.000015400315760     
   915.41323345124772     
   20.003266807802802     
   20.000021142276328     
   20.000026295974862     
   31.578042424641055     
   28.498515457034273     
   20.000011707071319     
   20.000004566417484     
   20.011063727687816     
   20.000010540752008     
   1143.8067973679110     
   20.000017438829861     
   1041.5331046840111     
   20.000010155790637     
   863.29049142051599     
   20.000004480843899     
   978.13799428559355     
   781.70757289676146     
   1034.8296031414234     
   1209.9669285882417     
   1039.5127653462157     
   20.000009801523429     
   20.000004935739423     
   20.000007838019346     
   874.82439087240209     
   843.36110264621834     
   765.89580853589428     
   738.17111101282524     
   1121.9585471599735     
   666.66581411403433     
   20.000463386508546     
   20.000010315467680     
   20.000033747230095     
   20.000031625813151     
   1233.9261243362541     
   892.69927037509456     
   895.77644445823660     
   969.60060601288171     
   632.76795892617451     
   724.56851974956419     
   20.000035539346182     
   20.000028725930431     
   20.000084421881251     
   566.62978965135392     
   835.26239985548261     
   564.37295352309309     
   20.000038943070816     
   20.000120322596558     
   20.000156955019850     
   632.45369478546775     
   474.45369092807994     
   768.89603254903159     
   20.000073836592062     
   616.54234600804944     
   654.55106208198583     
   20.000034035589600     
   20.000108077833929     
   664.37346348212418     
   20.000227171453712     
   20.000107399569050     
   541.33958640371566     
   20.000174892700056     
   20.000114868114537     
   20.000093614953023     
   20.000259920438861     
   567.98842090173230     
   461.51491802294612     
   484.51658455393425     
   20.000038458750456     
   392.88407115934297     
   414.07078459238556     
   20.000513587299888     
   20.000615907469701     
   20.000050482366948     
   20.000594977147365     
   717.77355012904900     
   20.001239800967980     
   20.001453446855255     
   20.001765034076698     
   20.000692191335148     
   302.24964488384683     
   20.001055270652536     
   20.000879050378455     
   407.97047337632586     
   20.001785401312191     
   20.001254422754510     
   20.000056380274913     
   20.002155504983271     
   20.001871898695729     
   20.001470573026086     
   20.003496634209831     
   20.001501427143833     
   20.006806492461504     
   20.007894570028473     
   20.018140727744509     
   20.013144949481639     
   20.011248798509929     
   20.015479629189564     
   20.024456739811018     
   20.060782311101537     
   20.028924237788061     
   20.024698960544232     
   20.045724291466886     
   20.033686040326629     
   20.145078709670255     
   20.071372631128721     
   20.061371713299025     
   20.110634055716890     
   20.082571702728806     
   20.077291699818954     
   20.039258006932393     
   20.102690467766557     
   20.082677769573507     
   20.062625899252712     
   20.057820870364189     
   20.331749946461564     
   20.169155646380787     
   20.146451618733781     
   20.257190302895388     
   20.194416971901624     
   20.095575140925767     
   396.33685213652109     
   20.731481483155878     
   20.385503596664901     
   20.335492687893648     
   20.572694368339203     
   20.438375800741127     
   20.223538969377294     
   20.518668770697158     
   20.414215669195041     
   20.300161182330985     
   20.391571504238229     
   21.551595173589718     
   20.843837825844428     
   20.739415796065490     
   21.229980837177784     
   20.955655295059035     
   20.502709476263835     
   20.322562511917582     
   23.172332368219376     
   21.777954814000111     
   21.567974987652381     
   22.544026565110467     
   22.001422253112352     
   21.086114789103981     
   22.174122698281852     
   21.784558605586106     
   21.337408605329163     
   21.702145788539358     
   26.259020889371815     
   23.611391679023388     
   23.204683709810279     
   25.079962535430280     
   24.035751178098415     
   22.260279802372541     
   246.02771829960784     
   281.90335194486596     
   256.55715261265539     
   21.419691004853274     
   27.852352917396569     
   139.32959752136250     
   298.33979043665175     
   152.20151080158203     
   138.12910037194982     
   155.12472058132826     
   31.936310005826329     
   277.82493455237278     
   247.39050686306035     
   298.27049107442525     
   27.081439452898916     
   26.320936898618776     
   78.384413798328850     
   241.34091229659722     
   131.10256792769516     
   73.725219574077784     
   155.77840361667771     
   24.537046065439259     
   118.82780938151821     
   242.38230341838911     
   28.814518567813394     
   29.802432804325175     
   331.84126749610920     
   207.91867143668364     
   187.16418284037312     
   133.01732799964441     
   45.549256642476855     
   112.17959772992049     
   38.108397679319268     
   36.558048213360856     
   86.379668614969404     
   46.855205785018043     
   337.54644611187757     
   33.416125769023850     
   32.048012382143540     
   255.31664574121217     
   37.887006011934552     
   245.36757265529928     
   89.081954913000999     
   161.99784854407199     
   45.227457868070537     
   180.28791493891489     
   179.92699445350109     
   177.15496532499600     
   238.90735466184171     
   34.747600420887650     
   161.02239454627369     
   103.72843710267115     
   102.92254168150957     
   302.81768270085189     
   98.956817594001166     
   336.00712856768831     
   66.750634700847385     
   74.992745095665185     
   85.911753422247187     
   218.90526497641943     
   349.69704687487308     
   51.074577446719275     
   190.37046834518335     
   274.14396988900359     
   20.002878400047024     
   78.528584950126771     
   84.186961541882795     
   319.94499805639845     
   20.006967507196499     
   20.003649559549707     
   67.638458857385118     
   36.492859974915675     
   90.435043875383343     
   140.34761511405992     
   444.24531415636710     
   322.39063236397504     
   236.79270228802480     
   268.92090399245120     
   149.51029777471126     
   97.711081428790934     
   65.842192719378659     
   46.524134265895377     
   35.002003037605533     
   28.189807660765911     
   24.375463582972824     
   22.247413702991057     
   21.121264053815292     
   20.537251939652442     
   20.248033169400014     
   20.108675389709362     
   20.047149087149027     
   20.019158936121091     
   20.007608507667882     
   20.005529725602976     
   20.003989079194788     
   20.005051804410183     
   20.002056605290203     
   20.002621052991337     
   20.000739107687348     
   20.000252580263968     
   20.000082619805649     
   20.000025998684190     
   20.003543500031107     
   20.000023879408349     
   20.000078329507581     
   20.000245791050588     
   20.000740529114843     
   20.002131231650015     
   20.004207377514149     
   20.005856400325925     
   20.004958561652828     
   20.008137099401203     
   20.006908750455441     
   20.021273656609573     
   20.053204304267503     
   20.127775280740899     
   20.294931437658999     
   20.654213503745776     
   21.395639119479764     
   22.868874431212632     
   25.689769915712780     
   30.905332906158741     
   40.246876277337279     
   56.537409520846388     
   84.335627708532257     
   97.275283630241290     
   90.077385739828628     
   112.75597858616909     
   130.71469361440265     
   206.86291747571778     
   330.04257124593352     
   526.93427726957361     
   97.243173154067122     
   210.42127065779604     
   221.60080934542199     
   154.99276424311341     
   20.002522462643274     
   112.51857343246823     
   286.96747482164756     
   65.092343230689949     
   120.69106621341682     
   50.165692478670486     
   20.002992188195606     
   56.761915061307228     
   104.17967295105066     
   259.42429239245632     
   68.400724366678418     
   353.73183390548729     
   46.726665810359563     
   74.931143660060684     
   163.26743983109125     
   119.61016488033795     
   60.607214188743015     
   114.60483616979199     
   51.367230078369175     
   53.330682930669738     
   47.563650986017628     
   65.615047504872209     
   57.696947500411106     
   133.35126717858680     
   286.48036022682714     
   174.99134674425167     
   120.49216350704744     
   52.533984139118509     
   37.403311515195618     
   64.264405318449079     
   114.58990484582610     
   77.384100767051649     
   59.432066043462711     
   73.468666553376778     
   41.939590329995440     
   99.151654588567794     
   44.794065873629954     
   45.542216012795514     
   38.375567227986508     
   42.523135217493618     
   41.039032847493921     
   151.37865901043006     
   45.647158000086002     
   153.47781466985978     
   34.634933227843582     
   40.423715926231509     
   97.652839970476194     
   37.141544605943267     
   27.494749333375655     
   34.736566395907623     
   99.556268579360008     
   89.817067412534755     
   103.59526513459288     
   33.861234179938741     
   29.294464667964558     
   187.71837129150711     
   27.956527871734547     
   219.08963641880504     
   32.152121601080985     
   31.400360417255317     
   23.868595750581729     
   27.925181252536071     
   29.847780194055343     
   210.31770886401699     
   27.485031583235170     
   29.195840995385783     
   27.764519601894605     
   27.981119989375969     
   24.137122728051320     
   27.388565748333587     
   24.798746792270141     
   26.443024168763408     
   25.962714615747061     
   25.181129608254739     
   21.909611578233349     
   23.993544247539230     
   24.777475541797390     
   24.126816108886000     
   23.799656558538636     
   22.076020692154909     
   22.403331371246207     
   23.291458718953951     
   23.029761635630919     
   22.612476852097679     
   20.925659236292539     
   21.982372154816993     
   22.396365425719111     
   22.054557621758057     
   21.882337429981952     
   21.001151419433054     
   21.177098491791572     
   21.621230276041253     
   21.483496797367440     
   21.273379399465391     
   20.427477434326892     
   20.949886837147872     
   21.160961958138369     
   20.990977526446468     
   20.902229655171908     
   20.470963943755180     
   20.549983772966275     
   20.771628104527888     