# vtk DataFile Version 2.0
 temperature
 ASCII
 DATASET UNSTRUCTURED_GRID
 POINTS         773  double
   0.0000000000000000        0.0000000000000000        0.0000000000000000     
   3.5000000000000000        0.0000000000000000        0.0000000000000000     
   3.5000000000000000        40.000000000000000        0.0000000000000000     
   0.0000000000000000        40.000000000000000        0.0000000000000000     
  0.43750000000000000        0.0000000000000000        0.0000000000000000     
  0.87500000000000000        0.0000000000000000        0.0000000000000000     
   1.3125000000000000        0.0000000000000000        0.0000000000000000     
   1.7500000000000000        0.0000000000000000        0.0000000000000000     
   2.1875000000000000        0.0000000000000000        0.0000000000000000     
   2.6250000000000000        0.0000000000000000        0.0000000000000000     
   3.0625000000000000        0.0000000000000000        0.0000000000000000     
   3.5000000000000000       0.50000000000000000        0.0000000000000000     
   3.5000000000000000        1.0000000000000000        0.0000000000000000     
   3.5000000000000000        1.5000000000000000        0.0000000000000000     
   3.5000000000000000        2.0000000000000000        0.0000000000000000     
   3.5000000000000000        2.5000000000000000        0.0000000000000000     
   3.5000000000000000        3.0000000000000000        0.0000000000000000     
   3.5000000000000000        3.5000000000000000        0.0000000000000000     
   3.5000000000000000        4.0000000000000000        0.0000000000000000     
   3.5000000000000000        4.5000000000000000        0.0000000000000000     
   3.5000000000000000        5.0000000000000000        0.0000000000000000     
   3.5000000000000000        5.5000000000000000        0.0000000000000000     
   3.5000000000000000        6.0000000000000000        0.0000000000000000     
   3.5000000000000000        6.5000000000000000        0.0000000000000000     
   3.5000000000000000        7.0000000000000000        0.0000000000000000     
   3.5000000000000000        7.5000000000000000        0.0000000000000000     
   3.5000000000000000        8.0000000000000000        0.0000000000000000     
   3.5000000000000000        8.5000000000000000        0.0000000000000000     
   3.5000000000000000        9.0000000000000000        0.0000000000000000     
   3.5000000000000000        9.5000000000000000        0.0000000000000000     
   3.5000000000000000        10.000000000000000        0.0000000000000000     
   3.5000000000000000        10.500000000000000        0.0000000000000000     
   3.5000000000000000        11.000000000000000        0.0000000000000000     
   3.5000000000000000        11.500000000000000        0.0000000000000000     
   3.5000000000000000        12.000000000000000        0.0000000000000000     
   3.5000000000000000        12.500000000000000        0.0000000000000000     
   3.5000000000000000        13.000000000000000        0.0000000000000000     
   3.5000000000000000        13.500000000000000        0.0000000000000000     
   3.5000000000000000        14.000000000000000        0.0000000000000000     
   3.5000000000000000        14.500000000000000        0.0000000000000000     
   3.5000000000000000        15.000000000000000        0.0000000000000000     
   3.5000000000000000        15.500000000000000        0.0000000000000000     
   3.5000000000000000        16.000000000000000        0.0000000000000000     
   3.5000000000000000        16.500000000000000        0.0000000000000000     
   3.5000000000000000        17.000000000000000        0.0000000000000000     
   3.5000000000000000        17.500000000000000        0.0000000000000000     
   3.5000000000000000        18.000000000000000        0.0000000000000000     
   3.5000000000000000        18.500000000000000        0.0000000000000000     
   3.5000000000000000        19.000000000000000        0.0000000000000000     
   3.5000000000000000        19.500000000000000        0.0000000000000000     
   3.5000000000000000        20.000000000000000        0.0000000000000000     
   3.5000000000000000        20.500000000000000        0.0000000000000000     
   3.5000000000000000        21.000000000000000        0.0000000000000000     
   3.5000000000000000        21.500000000000000        0.0000000000000000     
   3.5000000000000000        22.000000000000000        0.0000000000000000     
   3.5000000000000000        22.500000000000000        0.0000000000000000     
   3.5000000000000000        23.000000000000000        0.0000000000000000     
   3.5000000000000000        23.500000000000000        0.0000000000000000     
   3.5000000000000000        24.000000000000000        0.0000000000000000     
   3.5000000000000000        24.500000000000000        0.0000000000000000     
   3.5000000000000000        25.000000000000000        0.0000000000000000     
   3.5000000000000000        25.500000000000000        0.0000000000000000     
   3.5000000000000000        26.000000000000000        0.0000000000000000     
   3.5000000000000000        26.500000000000000        0.0000000000000000     
   3.5000000000000000        27.000000000000000        0.0000000000000000     
   3.5000000000000000        27.500000000000000        0.0000000000000000     
   3.5000000000000000        28.000000000000000        0.0000000000000000     
   3.5000000000000000        28.500000000000000        0.0000000000000000     
   3.5000000000000000        29.000000000000000        0.0000000000000000     
   3.5000000000000000        29.500000000000000        0.0000000000000000     
   3.5000000000000000        30.000000000000000        0.0000000000000000     
   3.5000000000000000        30.500000000000000        0.0000000000000000     
   3.5000000000000000        31.000000000000000        0.0000000000000000     
   3.5000000000000000        31.500000000000000        0.0000000000000000     
   3.5000000000000000        32.000000000000000        0.0000000000000000     
   3.5000000000000000        32.500000000000000        0.0000000000000000     
   3.5000000000000000        33.000000000000000        0.0000000000000000     
   3.5000000000000000        33.500000000000000        0.0000000000000000     
   3.5000000000000000        34.000000000000000        0.0000000000000000     
   3.5000000000000000        34.500000000000000        0.0000000000000000     
   3.5000000000000000        35.000000000000000        0.0000000000000000     
   3.5000000000000000        35.500000000000000        0.0000000000000000     
   3.5000000000000000        36.000000000000000        0.0000000000000000     
   3.5000000000000000        36.500000000000000        0.0000000000000000     
   3.5000000000000000        37.000000000000000        0.0000000000000000     
   3.5000000000000000        37.500000000000000        0.0000000000000000     
   3.5000000000000000        38.000000000000000        0.0000000000000000     
   3.5000000000000000        38.500000000000000        0.0000000000000000     
   3.5000000000000000        39.000000000000000        0.0000000000000000     
   3.5000000000000000        39.500000000000000        0.0000000000000000     
   3.0625000000000000        40.000000000000000        0.0000000000000000     
   2.6250000000000000        40.000000000000000        0.0000000000000000     
   2.1875000000000000        40.000000000000000        0.0000000000000000     
   1.7500000000000000        40.000000000000000        0.0000000000000000     
   1.3125000000000000        40.000000000000000        0.0000000000000000     
  0.87500000000000000        40.000000000000000        0.0000000000000000     
  0.43750000000000000        40.000000000000000        0.0000000000000000     
   0.0000000000000000        39.500000000000000        0.0000000000000000     
   0.0000000000000000        39.000000000000000        0.0000000000000000     
   0.0000000000000000        38.500000000000000        0.0000000000000000     
   0.0000000000000000        38.000000000000000        0.0000000000000000     
   0.0000000000000000        37.500000000000000        0.0000000000000000     
   0.0000000000000000        37.000000000000000        0.0000000000000000     
   0.0000000000000000        36.500000000000000        0.0000000000000000     
   0.0000000000000000        36.000000000000000        0.0000000000000000     
   0.0000000000000000        35.500000000000000        0.0000000000000000     
   0.0000000000000000        35.000000000000000        0.0000000000000000     
   0.0000000000000000        34.500000000000000        0.0000000000000000     
   0.0000000000000000        34.000000000000000        0.0000000000000000     
   0.0000000000000000        33.500000000000000        0.0000000000000000     
   0.0000000000000000        33.000000000000000        0.0000000000000000     
   0.0000000000000000        32.500000000000000        0.0000000000000000     
   0.0000000000000000        32.000000000000000        0.0000000000000000     
   0.0000000000000000        31.500000000000000        0.0000000000000000     
   0.0000000000000000        31.000000000000000        0.0000000000000000     
   0.0000000000000000        30.500000000000000        0.0000000000000000     
   0.0000000000000000        30.000000000000000        0.0000000000000000     
   0.0000000000000000        29.500000000000000        0.0000000000000000     
   0.0000000000000000        29.000000000000000        0.0000000000000000     
   0.0000000000000000        28.500000000000000        0.0000000000000000     
   0.0000000000000000        28.000000000000000        0.0000000000000000     
   0.0000000000000000        27.500000000000000        0.0000000000000000     
   0.0000000000000000        27.000000000000000        0.0000000000000000     
   0.0000000000000000        26.500000000000000        0.0000000000000000     
   0.0000000000000000        26.000000000000000        0.0000000000000000     
[...]
 CELL_DATA        1368
 SCALARS T double
 LOOKUP_TABLE default
   21.070807482941749     
   26.004023235454699     
   1677.3923524783088     
   46.207668294282037     
   20.000002501981566     
   22.049984002138480     
   1280.3709254972882     
   21.904109831205275     
   20.155777609162659     
   21.597964840466449     
   20.238217996238376     
   40.110223558238715     
   21.542436945702892     
   48.631627375706898     
   41.437762239142288     
   1213.3333585686944     
   1678.5681482494492     
   20.476919443892069     
   20.436105379454872     
   23.106213696695441     
   20.363919809894629     
   20.028350720830073     
   1737.9608059910936     
   20.045499514056662     
   20.919209862090909     
   25.889559457101541     
   20.340278693069546     
   22.380211841132553     
   21.223247434396896     
   20.180229405357249     
   23.037104237865439     
   20.000004325785468     
   25.275019799903149     
   26.392963396085900     
   26.225715827774241     
   20.000003695416314     
   20.738658257149893     
   20.095365849437197     
   20.276627025125880     
   20.086268656778884     
   20.064775981149889     
   21.495248104012060     
   20.070649867984059     
   47.502573649564312     
   20.560533114798275     
   445.29833664392743     
   437.42793146754224     
   21.313536959404381     
   21.670910982073309     
   699.39707805419141     
   704.32863585803602     
   20.200465689773523     
   20.729045245833841     
   20.000003476401350     
   1709.4120485013300     
   20.000003048608495     
   20.000007844565292     
   20.026893800877488     
   20.015462817069167     
   20.033718793120336     
   20.000009910003737     
   45.756260096400631     
   20.052886980168015     
   20.000018488207104     
   22.700995944864928     
   23.342810066693190     
   20.150733427266864     
   23.189469932610468     
   20.286122893894728     
   20.372339921337218     
   20.000006588116506     
   1677.8621342278477     
   20.000011890929940     
   20.335572074421258     
   20.112676730486658     
   20.152087998482358     
   20.000026311325154     
   20.000060702999843     
   20.000005457787573     
   421.43148286900771     
   20.037682477513890     
   20.014157948421385     
   260.41121676085373     
   20.008727737887263     
   163.87987015223266     
   20.632912986394853     
   20.807183263957576     
   417.48289554990509     
   20.022505195308408     
   863.08319854142303     
   20.053441119423503     
   20.071906081752161     
   68.753543557725209     
   20.000191033508631     
   806.89207495688447     
   20.003979234821784     
   47.403981150464709     
   20.000084986188515     
   20.004609889461356     
   20.000033172983692     
   258.64565917544172     
   20.000022162291561     
   221.33793969201596     
   224.84605149633083     
   20.064234463117501     
   20.018979933630586     
   20.000005307166418     
   20.143497703926137     
   20.000004505722917     
   20.000039008634626     
   29.565329524399242     
   530.39158502120392     
   28.735692039768189     
   20.002332039884063     
   20.000015097915412     
   20.000002507354921     
   141.04878466706185     
   24.526295767264173     
   143.05074729524523     
   20.001121508618876     
   20.000022336636786     
   20.002092285856598     
   20.014400746780204     
   162.80173717525079     
   22.274177312252174     
   319.00742554794215     
   20.127959026213684     
   20.165512355103893     
   20.010735031608622     
   20.787953179632368     
   20.000006635438346     
   20.002851839988601     
   541.12402907952435     
   21.098245005286870     
   20.000072174013301     
   20.000264715027733     
   20.509355632755561     
   92.091951019896243     
   1322.1851429500703     
   93.431715962869376     
   1010.1262898584719     
   486.58762541790958     
   200.11568665683527     
   20.003252743154906     
   20.007775579106351     
   20.000847686372637     
   509.51986291895645     
   20.005614947842634     
   20.000049912017591     
   20.000072850494664     
   20.001096913033948     
   323.17011435036892     
   20.007615124004101     
   62.025394803422657     
   62.689445459721171     
   20.000106249771466     
   20.000734763495153     
   126.56874515905314     
   20.011274298245940     
   20.000224711007434     
   20.000124498581908     
   20.000014741760573     
   41.695309156197034     
   68.313433669161341     
   20.025865546155124     
   22.572598477455273     
   20.000227436772352     
   20.000002321857227     
   250.79934303989884     
   202.64075017874023     
   20.001685292849928     
   20.000500274959396     
   20.000157399613776     
   47.169477976685137     
   55.295961131701610     
   20.000576427901564     
   1015.1153854751487     
   20.614944133644986     
   127.77623048765329     
   20.000328329324454     
   169.50087901104709     
   160.90586978448260     
   39.557421668671935     
   20.000380315039337     
   36.265746668704679     
   20.001057684001541     
   20.011850025923433     
   20.016267247347542     
   61.874430434911957     
   20.000005121160058     
   266.34345801409461     
   20.124954680534167     
   27.176607386651337     
   27.172991061259456     
   31.240066716045998     
   20.000002709869026     
   584.52885578861901     
   20.001154898661085     
   20.000004545386581     
   20.000474135992125     
   28.552090005743207     
   20.000680259991466     
   109.42078177445218     
   20.006276085272511     
   20.008640387459110     
   20.002231696646355     
   104.04638914788487     
   24.610200758613704     
   20.000545911636490     
   20.000005333756889     
   20.000783075447199     
   20.000009184470560     
   25.881896020526760     
   20.000002374397333     
   20.002572816410733     
   20.000348387537166     
   20.004357013176030     
   20.006317575744752     
   20.162926419482524     
   20.000966992981489     
   24.428879938245668     
   20.000006115826718     
   20.010343615902638     
   59.573956197743044     
   20.004520935911749     
   55.858415671454082     
   20.005028179351989     
   20.000241983851218     
   20.000003561777383     
   20.000283859624854     
   20.001441943079438     
   20.000007691418617     
   22.224459414738103     
   20.000048719582775     
   22.992795301918633     
   20.000197244776981     
   20.011559371550884     
   20.000003944964512     
   21.073815574900120     
   20.013250038662601     
   34.458947601835902     
   39.829097927832777     
   333.26860213443308     
   21.160220406192320     
   56.303476009198349     
   72.516010707317051     
   1436.0821331258051     
   69.262280377481815     
   20.497488359190317     
   20.000167207045845     
   20.000078706031342     
   20.029490222089542     
   20.001577279853571     
   21.469237495066221     
   1518.0198865140776     
   20.000063402529918     
   20.000136035811309     
   20.000406331631805     
   20.033551820331255     
   20.001819850621942     
   20.000008059234119     
   745.65019268419326     
   575.55754273414141     
   20.072191362011026     
   20.016356408373326     
   20.004072772686786     
   20.694715940661442     
   20.000008823921249     
   20.081596240267146     
   1461.4771907257179     
   31.541928213154822     
   20.254940341387911     
   20.001283199211393     
   20.001468660370286     
   20.001036807395039     
   20.000008663077988     
   20.169816381407440     
   20.000007871530272     
   1384.9675589592955     
   1189.5555859464580     
   20.000001831694600     
   1254.9071023980455     
   20.000009189767841     
   20.190681904900547     
   1369.3351938594255     
   20.014706053160708     
   32.525814847374448     
   870.77393009704485     
   1392.2895553584549     
   20.000026197568090     
   26.065575292618576     
   20.000003674730440     
   20.000115292717613     
   20.001169961208376     
   20.001664781272286     
   20.000053574302108     
   20.000004951678108     
   20.000028927192915     
   20.000004076603879     
   924.12076067276075     
   23.089209738488066     
   20.000092911132722     
   662.79123068328522     
   20.000003574421260     
   20.000042834964120     
   21.518140717409594     
   20.718210024214606     
   20.000002390260956     
   20.000003330901787     
   1179.6868506051437     
   20.000006077999412     
   1291.5125583164288     
   1073.5196592463215     
   20.001488505513539     
   20.001201230458676     
   1481.3333999809479     
   31.934554734920422     
   337.42859582658167     
   20.047918641816985     
   20.000004844262754     
   20.000002709816226     
   20.000009987792041     
   783.50315470964722     
   20.000596989563068     
   20.000006708375579     
   20.000154544682534     
   20.000522413970270     
   20.008388627064832     
   1321.2681865579971     
   765.22256052315856     
   20.000004061049502     
   20.000008245966836     
   52.468580036076219     
   1203.5288955369449     
   20.000577280913092     
   20.000013015814257     
   1214.9979631226572     
   1292.5441548317162     
   20.009563787718225     
   20.003129674548688     
   1010.6141800975788     
   20.000007021579773     
   20.000026555206993     
   20.000016514145184     
   20.000017844918261     
   915.72773827386084     
   20.003593116453349     
   20.000024503640905     
   20.000030335187809     
   31.765956385290696     
   28.640569526469680     
   20.000013594767058     
   20.000005363700780     
   20.011959464383459     
   20.000012353509288     
   1144.0882313996412     
   20.000020161403345     
   1041.8407696794470     
   20.000011847825917     
   863.64003941852332     
   20.000005275395022     
   978.48288998023577     
   782.07261166619583     
   1035.0732559195058     
   1210.2138954278334     
   1039.8762682790543     
   20.000011489059180     
   20.000005811021342     
   20.000009142656747     
   875.11946997341818     
   843.75985262120207     
   766.31227110705049     
   738.56946776801453     
   1122.2901895660796     
   667.07533792120978     
   20.000517278456304     
   20.000012006533012     
   20.000038848952084     
   20.000036491199005     
   1234.0701078206018     
   893.12445183655643     
   896.14221915047494     
   969.99542975897259     
   633.15338360590090     
   725.01432715585509     
   20.000041091663821     
   20.000033291189894     
   20.000096145343782     
   567.19381923026458     
   835.71432162958251     
   564.93037516601396     
   20.000044729560130     
   20.000136179939997     
   20.000177281573119     
   632.89359931590673     
   474.87693400886695     
   769.37420590138242     
   20.000084089822458     
   617.08816775304172     
   655.01078047413023     
   20.000039093369072     
   20.000122831759526     
   664.89654961390340     
   20.000255562567542     
   20.000121812768224     
   541.81614908964741     
   20.000197138625332     
   20.000131107757962     
   20.000107086867143     
   20.000292406839471     
   568.43606014474074     
   462.02492135507822     
   484.99572043216153     
   20.000044076154015     
   393.41848254219951     
   414.57801766321660     
   20.000576682085427     
   20.000690185912930     
   20.000057734421492     
   20.000665629319681     
   718.27596932455720     
   20.001378666944330     
   20.001613301062736     
   20.001955274673172     
   20.000772846281627     
   302.61105091555311     
   20.001175705470519     
   20.000981271678949     
   408.52547997279584     
   20.001977859285262     
   20.001394933995339     
   20.000064344563512     
   20.002370235774489     
   20.002058433209243     
   20.001619952477835     
   20.003845271194990     
   20.001666430559684     
   20.007432363933553     
   20.008606108427845     
   20.019608843968886     
   20.014256529465250     
   20.012220342989803     
   20.016760580506471     
   20.026350907850389     
   20.064882620993057     
   20.031115438974538     
   20.026612482080459     
   20.048956255102876     
   20.036179991482314     
   20.153523564450719     
   20.076075490990114     
   20.065513270092019     
   20.117403166040145     
   20.087880560223613     
   20.081792708904125     
   20.042099750983386     
   20.108362852968959     
   20.087363201014213     
   20.066361798147941     
   20.061365648600059     
   20.348244567258419     
   20.178757905915941     
   20.154979969199815     
   20.270672739681853     
   20.205166438241925     
   20.101574231050570     
   396.92850443082364     
   20.762157323178116     
   20.404150098837487     
   20.352176004068443     
   20.598137675878302     
   20.459004778859132     
   20.235584752239028     
   20.539068764938158     
   20.431053751212513     
   20.313524320021919     
   20.407998039539098     
   21.605712116069395     
   20.878191855511417     
   20.770431161480413     
   21.275649699066779     
   20.993402192683710     
   20.525701469053804     
   20.336464056957233     
   23.262859210913675     
   21.838005579298052     
   21.622678602452684     
   22.621756280195289     
   22.066829814021240     
   21.127736515530856     
   22.231728293682718     
   21.833623348091795     
   21.378394193880599     
   21.750732976460476     
   26.402396986145074     
   23.710904516489368     
   23.296168933573558     
   25.205364663628746     
   24.143065787595592     
   22.331760124667884     
   246.54580300905911     
   282.50502041759512     
   257.05174257409465     
   21.461533416364105     
   28.018929522760772     
   139.80908175961093     
   298.92496376501532     
   152.77262355716618     
   138.67887545623825     
   155.62934152101528     
   32.150897239145728     
   278.27103390545017     
   248.00928096272841     
   298.75751762297597     
   27.237538295922267     
   26.465798835659896     
   78.784896761840429     
   241.94322595639454     
   131.65399607931465     
   74.092376003274509     
   156.36556183013988     
   24.653381905918533     
   119.35505218022239     
   242.81156437264241     
   28.993880433673056     
   29.993769106029085     
   332.43440652500976     
   208.51670738303397     
   187.74406005758041     
   133.54293659211595     
   45.840168607446572     
   112.60625998460395     
   38.382286938819895     
   36.809380462213603     
   86.808289873978197     
   47.146712302757614     
   338.04564429609553     
   33.647388580585613     
   32.264771220010509     
   255.90693254432645     
   38.146518134200207     
   245.93222742613639     
   89.557590845605660     
   162.48794251344754     
   45.500395558744430     
   180.84343315044035     
   180.43890634808506     
   177.74257798846179     
   239.36788562580793     
   34.991569589797315     
   161.59023383645578     
   104.26822052987015     
   103.42611097197906     
   303.35942340818372     
   99.351919838918562     
   336.55762856877988     
   67.090773010844686     
   75.394643243080878     
   86.365248650600790     
   219.49434638064938     
   350.27259140150437     
   51.410077273550961     
   190.91565087831060     
   274.42914552345991     
   20.003148245341364     
   78.956354457075150     
   84.657064136366657     
   320.24744054292887     
   20.007556356157867     
   20.003984968668824     
   68.052655109884370     
   36.753203219398266     
   90.890105327119244     
   140.86811137209924     
   444.46681307012221     
   322.65939098380494     
   237.09527347440098     
   269.24091592673432     
   149.82903994751538     
   98.019709897896234     
   66.116987423666870     
   46.752213580777031     
   35.179680870225326     
   28.318746687309829     
   24.464377983868793     
   22.304883637233015     
   21.156647954616460     
   20.557808330427484     
   20.259353939935043     
   20.114524773038095     
   20.050102946935020     
   20.020543523999653     
   20.008237452552979     
   20.006006819465064     
   20.004347869078988     
   20.005497063165958     
   20.002257348467129     
   20.002871993824407     
   20.000820253002225     
   20.000283573888606     
   20.000093895048526     
   20.000029924914870     
   20.003896762619885     
   20.000027732239289     
   20.000089780804085     
   20.000278213484716     
   20.000828206091747     
   20.002356565140495     
   20.004618514376340     
   20.006406126406052     
   20.005433409438897     
   20.008870017882057     
   20.007543798102386     
   20.022958004625089     
   20.056878860109144     
   20.135403017085174     
   20.309990767438155     
   20.682448931089425     
   21.445862364434394     
   22.953592464837499     
   25.825113062840877     
   31.109760924258346     
   40.538348429448604     
   56.929145394991920     
   84.830573031543224     
   97.802547422273392     
   90.586528258281916     
   113.31369596621853     
   131.29931638443855     
   207.50374316330397     
   330.68691944182967     
   527.51651330876496     
   97.743196188133084     
   210.98419911617330     
   222.14994439840018     
   155.53586248083658     
   20.002784027344802     
   113.04583216318848     
   287.52830061145755     
   65.484911049569703     
   121.19278286591228     
   50.508657327298621     
   20.003296549288407     
   57.137604519157698     
   104.65899265835399     
   259.97323545933472     
   68.798729141510591     
   354.26056267869626     
   47.046427904255552     
   75.356733715972780     
   163.80289040221157     
   120.07355344973665     
   60.978004548480712     
   115.10927548859318     
   51.688012192017950     
   53.671869609577648     
   47.876343661546116     
   66.034167529715120     
   58.063082663971265     
   133.84177794678331     
   286.98917020394015     
   175.44778914326051     
   121.06107065495573     
   52.885161563445102     
   37.643830358729197     
   64.671432610033307     
   115.06055453746744     
   77.829848932254549     
   59.815060185378393     
   73.907956000068737     
   42.229045991388503     
   99.631988014190199     
   45.105486731382172     
   45.862943540400288     
   38.630138135085502     
   42.806123054570648     
   41.316285799585430     
   151.83408181880145     
   45.953765857193808     
   153.90831712080814     
   34.867333242220134     
   40.705379001506181     
   98.067359780450943     
   37.389965563330236     
   27.641670108896353     
   34.961781014079868     
   100.00862117883001     
   90.240628372843233     
   104.03971978588088     
   34.081179387383550     
   29.462583362709477     
   188.21479144514478     
   28.107102727223481     
   219.58881606274340     
   32.354106967058932     
   31.597469405044677     
   23.964429159165089     
   28.068470598026060     
   30.026306035264959     
   210.83527580451599     
   27.625818666670607     
   29.369113147303246     
   27.923245163293771     
   28.138083615461873     
   24.236189605184087     
   27.539654822313729     
   24.909318108134020     
   26.580240259998224     
   26.094589451177427     
   25.300283576613133     
   21.968138972518346     
   24.096301890714770     
   24.891665837873184     
   24.229302470506195     
   23.897438074436316     
   22.137540184293972     
   22.472258077925328     
   23.379333683044727     
   23.113489832451570     
   22.687303252667764     
   20.960138215573224     
   22.045272506803947     
   22.467445436112417     
   22.117681789303425     
   21.942075694957623     
   21.037386608061585     
   21.218351798660379     
   21.674435104184251     
   21.533753182671816     
   21.317940035962806     
   20.446525511123902     
   20.986404139209395     
   21.202918615155287     
   21.027951314909345     
   20.936918176190694     
   20.491336775747275     
   20.573146038106888     
   20.802223502695423     