# vtk DataFile Version 2.0
 temperature
 ASCII
 DATASET UNSTRUCTURED_GRID
 POINTS         773  double
   0.0000000000000000        0.0000000000000000        0.0000000000000000     
   3.5000000000000000        0.0000000000000000        0.0000000000000000     
   3.5000000000000000        40.000000000000000        0.0000000000000000     
   0.0000000000000000        40.000000000000000        0.0000000000000000     
  0.43750000000000000        0.0000000000000000        0.0000000000000000     
  0.87500000000000000        0.0000000000000000        0.0000000000000000     
   1.3125000000000000        0.0000000000000000        0.0000000000000000     
   1.7500000000000000        0.0000000000000000        0.0000000000000000     
   2.1875000000000000        0.0000000000000000        0.0000000000000000     
   2.6250000000000000        0.0000000000000000        0.0000000000000000     
   3.0625000000000000        0.0000000000000000        0.0000000000000000     
   3.5000000000000000       0.50000000000000000        0.0000000000000000     
   3.5000000000000000        1.0000000000000000        0.0000000000000000     
   3.5000000000000000        1.5000000000000000        0.0000000000000000     
   3.5000000000000000        2.0000000000000000        0.0000000000000000     
   3.5000000000000000        2.5000000000000000        0.0000000000000000     
   3.5000000000000000        3.0000000000000000        0.0000000000000000     
   3.5000000000000000        3.5000000000000000        0.0000000000000000     
   3.5000000000000000        4.0000000000000000        0.0000000000000000     
   3.5000000000000000        4.5000000000000000        0.0000000000000000     
   3.5000000000000000        5.0000000000000000        0.0000000000000000     
   3.5000000000000000        5.5000000000000000        0.0000000000000000     
   3.5000000000000000        6.0000000000000000        0.0000000000000000     
   3.5000000000000000        6.5000000000000000        0.0000000000000000     
   3.5000000000000000        7.0000000000000000        0.0000000000000000     
   3.5000000000000000        7.5000000000000000        0.0000000000000000     
   3.5000000000000000        8.0000000000000000        0.0000000000000000     
   3.5000000000000000        8.5000000000000000        0.0000000000000000     
   3.5000000000000000        9.0000000000000000        0.0000000000000000     
   3.5000000000000000        9.5000000000000000        0.0000000000000000     
   3.5000000000000000        10.000000000000000        0.0000000000000000     
   3.5000000000000000        10.500000000000000        0.0000000000000000     
   3.5000000000000000        11.000000000000000        0.0000000000000000     
   3.5000000000000000        11.500000000000000        0.0000000000000000     
   3.5000000000000000        12.000000000000000        0.0000000000000000     
   3.5000000000000000        12.500000000000000        0.0000000000000000     
   3.5000000000000000        13.000000000000000        0.0000000000000000     
   3.5000000000000000        13.500000000000000        0.0000000000000000     
   3.5000000000000000        14.000000000000000        0.0000000000000000     
   3.5000000000000000        14.500000000000000        0.0000000000000000     
   3.5000000000000000        15.000000000000000        0.0000000000000000     
   3.5000000000000000        15.500000000000000        0.0000000000000000     
   3.5000000000000000        16.000000000000000        0.0000000000000000     
   3.5000000000000000        16.500000000000000        0.0000000000000000     
   3.5000000000000000        17.000000000000000        0.0000000000000000     
   3.5000000000000000        17.500000000000000        0.0000000000000000     
   3.5000000000000000        18.000000000000000        0.0000000000000000     
   3.5000000000000000        18.500000000000000        0.0000000000000000     
   3.5000000000000000        19.000000000000000        0.0000000000000000     
   3.5000000000000000        19.500000000000000        0.0000000000000000     
   3.5000000000000000        20.000000000000000        0.0000000000000000     
   3.5000000000000000        20.500000000000000        0.0000000000000000     
   3.5000000000000000        21.000000000000000        0.0000000000000000     
   3.5000000000000000        21.500000000000000        0.0000000000000000     
   3.5000000000000000        22.000000000000000        0.0000000000000000     
   3.5000000000000000        22.500000000000000        0.0000000000000000     
   3.5000000000000000        23.000000000000000        0.0000000000000000     
   3.5000000000000000        23.500000000000000        0.0000000000000000     
   3.5000000000000000        24.000000000000000        0.0000000000000000     
   3.5000000000000000        24.500000000000000        0.0000000000000000     
   3.5000000000000000        25.000000000000000        0.0000000000000000     
   3.5000000000000000        25.500000000000000        0.0000000000000000     
   3.5000000000000000        26.000000000000000        0.0000000000000000     
   3.5000000000000000        26.500000000000000        0.0000000000000000     
   3.5000000000000000        27.000000000000000        0.0000000000000000     
   3.5000000000000000        27.500000000000000        0.0000000000000000     
   3.5000000000000000        28.000000000000000        0.0000000000000000     
   3.5000000000000000        28.500000000000000        0.0000000000000000     
   3.5000000000000000        29.000000000000000        0.0000000000000000     
   3.5000000000000000        29.500000000000000        0.0000000000000000     
   3.5000000000000000        30.000000000000000        0.0000000000000000     
   3.5000000000000000        30.500000000000000        0.0000000000000000     
   3.5000000000000000        31.000000000000000        0.0000000000000000     
   3.5000000000000000        31.500000000000000        0.0000000000000000     
   3.5000000000000000        32.000000000000000        0.0000000000000000     
   3.5000000000000000        32.500000000000000        0.0000000000000000     
   3.5000000000000000        33.000000000000000        0.0000000000000000     
   3.5000000000000000        33.500000000000000        0.0000000000000000     
   3.5000000000000000        34.000000000000000        0.0000000000000000     
   3.5000000000000000        34.500000000000000        0.0000000000000000     
   3.5000000000000000        35.000000000000000        0.0000000000000000     
   3.5000000000000000        35.500000000000000        0.0000000000000000     
   3.5000000000000000        36.000000000000000        0.0000000000000000     
   3.5000000000000000        36.500000000000000        0.0000000000000000     
   3.5000000000000000        37.000000000000000        0.0000000000000000     
   3.5000000000000000        37.500000000000000        0.0000000000000000     
   3.5000000000000000        38.000000000000000        0.0000000000000000     
   3.5000000000000000        38.500000000000000        0.0000000000000000     
   3.5000000000000000        39.000000000000000        0.0000000000000000     
   3.5000000000000000        39.500000000000000        0.0000000000000000     
   3.0625000000000000        40.000000000000000        0.0000000000000000     
   2.6250000000000000        40.000000000000000        0.0000000000000000     
   2.1875000000000000        40.000000000000000        0.0000000000000000     
   1.7500000000000000        40.000000000000000        0.0000000000000000     
   1.3125000000000000        40.000000000000000        0.0000000000000000     
  0.87500000000000000        40.000000000000000        0.0000000000000000     
  0.43750000000000000        40.000000000000000        0.0000000000000000     
   0.0000000000000000        39.500000000000000        0.0000000000000000     
   0.0000000000000000        39.000000000000000        0.0000000000000000     
   0.0000000000000000        38.500000000000000        0.0000000000000000     
   0.0000000000000000        38.000000000000000        0.0000000000000000     
   0.0000000000000000        37.500000000000000        0.0000000000000000     
   0.0000000000000000        37.000000000000000        0.0000000000000000     
   0.0000000000000000        36.500000000000000        0.0000000000000000     
   0.0000000000000000        36.000000000000000        0.0000000000000000     
   0.0000000000000000        35.500000000000000        0.0000000000000000     
   0.0000000000000000        35.000000000000000        0.0000000000000000     
   0.0000000000000000        34.500000000000000        0.0000000000000000     
   0.0000000000000000        34.000000000000000        0.0000000000000000     
   0.0000000000000000        33.500000000000000        0.0000000000000000     
   0.0000000000000000        33.000000000000000        0.0000000000000000     
   0.0000000000000000        32.500000000000000        0.0000000000000000     
   0.0000000000000000        32.000000000000000        0.0000000000000000     
   0.0000000000000000        31.500000000000000        0.0000000000000000     
   0.0000000000000000        31.000000000000000        0.0000000000000000     
   0.0000000000000000        30.500000000000000        0.0000000000000000     
   0.0000000000000000        30.000000000000000        0.0000000000000000     
   0.0000000000000000        29.500000000000000        0.0000000000000000     
   0.0000000000000000        29.000000000000000        0.0000000000000000     
   0.0000000000000000        28.500000000000000        0.0000000000000000     
   0.0000000000000000        28.000000000000000        0.0000000000000000     
   0.0000000000000000        27.500000000000000        0.0000000000000000     
   0.0000000000000000        27.000000000000000        0.0000000000000000     
   0.0000000000000000        26.500000000000000        0.0000000000000000     
   0.0000000000000000        26.000000000000000        0.0000000000000000     
[...]
 CELL_DATA        1368
 SCALARS T double
 LOOKUP_TABLE default
   20.400993226862788     
   23.129746526488947     
   1673.5257672209741     
   39.540130327312326     
   20.000000017155021     
   20.870675068175405     
   1276.9747081245118     
   20.784294483048125     
   20.035585309096057     
   20.639282844025029     
   20.060281554749100     
   33.836596029383195     
   20.580549918909583     
   41.311263789306118     
   34.961631309093008     
   1209.8593076484415     
   1674.6084358766811     
   20.139730253136531     
   20.122943481237947     
   21.388569365758926     
   20.099182761037287     
   20.004013773332751     
   1734.9179146899594     
   20.007250239361476     
   20.337095533062470     
   23.158010622417482     
   20.086218207628672     
   21.036393977906943     
   20.458193903322627     
   20.042249000698167     
   21.400407669823011     
   20.000000034285637     
   22.688678383833345     
   23.401252086575795     
   23.397045066175895     
   20.000000027990566     
   20.230111062341422     
   20.017996773874629     
   20.070125616170262     
   20.015583884121135     
   20.010330713733218     
   20.579668698086618     
   20.012263430970673     
   39.928488748745941     
   20.169218883902229     
   425.21884560001422     
   417.64835464059422     
   20.479159231779061     
   20.648069263112834     
   691.99725072575063     
   696.16388200947415     
   20.049317650116134     
   20.235594636100764     
   20.000000026102789     
   1706.8457188125078     
   20.000000022147585     
   20.000000075251609     
   20.003481293083873     
   20.001839569308853     
   20.004933254333981     
   20.000000102053583     
   38.711870170208606     
   20.008442290139143     
   20.000000230176102     
   21.177405950738518     
   21.532048814638181     
   20.030543718578254     
   21.495385509619464     
   20.069895623228138     
   20.097720694607478     
   20.000000059612123     
   1674.8348612729735     
   20.000000130098076     
   20.088165369011637     
   20.021994073479707     
   20.032217094860059     
   20.000000368971484     
   20.000001092731779     
   20.000000046255408     
   400.72809336068116     
   20.005806417889740     
   20.001609034567132     
   239.44205540084408     
   20.000825120803469     
   144.74966152783361     
   20.191179629890051     
   20.259699923259689     
   396.90615384481839     
   20.002805657255514     
   856.59948699946995     
   20.008163970304359     
   20.011962842782097     
   56.365647247211051     
   20.000004894608463     
   800.52455334243098     
   20.000280995868614     
   38.474770200607416     
   20.000001712260321     
   20.000360898756821     
   20.000000498086941     
   237.83363938911691     
   20.000000293714308     
   208.94205865133392     
   211.70928484135649     
   20.010662806915541     
   20.002351648765892     
   20.000000045006239     
   20.031648473996359     
   20.000000036014427     
   20.000000617816770     
   25.736216544155823     
   512.57867603781904     
   24.675364572527858     
   20.000142003057601     
   20.000000176672856     
   20.000000017301396     
   128.95770110650432     
   22.082904333647697     
   130.35994121954752     
   20.000049732167721     
   20.000000295382357     
   20.000127361118473     
   20.001485512236727     
   143.81911267605861     
   20.885020239375244     
   298.50786078673002     
   20.025022252868233     
   20.034760405961006     
   20.001061246896796     
   20.261820379903138     
   20.000000059908416     
   20.000182180359808     
   522.87375584536437     
   20.354752657406188     
   20.000001378376201     
   20.000007562286758     
   20.134094550336222     
   81.385370424521184     
   1318.2473344420996     
   82.212128749755507     
   1005.3663797856893     
   476.61542278983984     
   180.50319725578291     
   20.000219092057382     
   20.000699441350775     
   20.000039866644627     
   499.32072761294836     
   20.000459047745476     
   20.000000846930270     
   20.000001389192217     
   20.000048706360957     
   302.35641633660236     
   20.000651577544563     
   53.321882599176305     
   53.664682305012789     
   20.000002285381569     
   20.000034574881315     
   109.48948587831556     
   20.001225627622297     
   20.000006086089048     
   20.000002820822154     
   20.000000172080643     
   35.957963656986522     
   56.034674399990131     
   20.003511201426885     
   21.156974862020743     
   20.000006155427030     
   20.000000015833866     
   238.47760060998465     
   182.72319200635286     
   20.000097768364597     
   20.000018878859478     
   20.000003804955156     
   38.317395970945562     
   45.071019461647658     
   20.000025791460118     
   1009.8515595432410     
   20.193107128386288     
   110.45798676072074     
   20.000009983511983     
   156.56795942231551     
   148.51858572379822     
   32.443199937906769     
   20.000012134946083     
   30.702295709061804     
   20.000052295098858     
   20.001169184344750     
   20.001760667571048     
   51.899334486317365     
   20.000000043364700     
   253.47663414737559     
   20.025505171427827     
   24.128388494636628     
   24.105624429123768     
   26.448452115174089     
   20.000000021584270     
   575.07564336874941     
   20.000063797144954     
   20.000000038747984     
   20.000016129877007     
   24.576955064499103     
   20.000025835682738     
   97.606299292563193     
   20.000513228637693     
   20.000776684946747     
   20.000122895497551     
   92.794648191362668     
   22.334158680178891     
   20.000019451356209     
   20.000000048307975     
   20.000031139906838     
   20.000000093997176     
   22.924202093579403     
   20.000000018875472     
   20.000148609613493     
   20.000011782789691     
   20.000293340151604     
   20.000543593537031     
   20.035475673979569     
   20.000040876958327     
   22.037942198414950     
   20.000000055074995     
   20.001072971559164     
   49.889236491014834     
   20.000335572657153     
   45.463823910572984     
   20.000355164565207     
   20.000007321706590     
   20.000000030394677     
   20.000009135806653     
   20.000074969730022     
   20.000000074044383     
   20.865233329116858     
   20.000000824482587     
   21.268340905738857     
   20.000005678379022     
   20.001040804445719     
   20.000000033672194     
   20.346637446950385     
   20.001248381875943     
   29.316322206018782     
   32.606041194570665     
   318.27380167803983     
   20.421543638920532     
   47.782561538513434     
   62.643172353886406     
   1431.4777794552931     
   59.902295238509964     
   20.130941619696845     
   20.000004518374801     
   20.000001686288346     
   20.003496652548378     
   20.000078158937406     
   20.521348984827000     
   1512.6857685089260     
   20.000001288064183     
   20.000003496388501     
   20.000014585887470     
   20.004150943411052     
   20.000094705457375     
   20.000000094594000     
   733.69055684476234     
   567.00204847764189     
   20.011088274207971     
   20.001855664755062     
   20.000302694538696     
   20.202780835974885     
   20.000000090430447     
   20.013042071562154     
   1456.4882171191180     
   26.616640888197892     
   20.062089220488083     
   20.000060094306487     
   20.000085216013421     
   20.000054119715521     
   20.000000094968328     
   20.033241281558105     
   20.000000086401037     
   1377.0131856706553     
   1187.5468822180899     
   20.000000013775811     
   1247.8220385949180     
   20.000000107801728     
   20.038736534854337     
   1363.1122372315244     
   20.001593595202348     
   28.208024369111801     
   862.40842148163051     
   1385.7531608184718     
   20.000000417947454     
   23.014700372279247     
   20.000000027646774     
   20.000002780053904     
   20.000057853639841     
   20.000091593857768     
   20.000001020465962     
   20.000000044854993     
   20.000000461402792     
   20.000000036993828     
   914.98872309959688     
   21.308652630967504     
   20.000002125087292     
   650.56140968970794     
   20.000000032451020     
   20.000000772126214     
   20.538477971567932     
   20.209542864611439     
   20.000000017121987     
   20.000000026572604     
   1171.3564100833901     
   20.000000066963871     
   1286.0297900980572     
   1064.4192662251994     
   20.000081705006583     
   20.000062845014881     
   1474.6166172197072     
   27.738834978539010     
   322.97054547061782     
   20.007309414497559     
   20.000000041368256     
   20.000000023083366     
   20.000000102667038     
   772.79959288508110     
   20.000025255648751     
   20.000000064664288     
   20.000003732115676     
   20.000020893074282     
   20.000686860811090     
   1313.6124597227183     
   760.65112584393103     
   20.000000039391765     
   20.000000079698403     
   44.375261317043801     
   1193.1124520551700     
   20.000023054038486     
   20.000000162167243     
   1208.3433751410755     
   1283.2868082979278     
   20.000818285637678     
   20.000190793180934     
   1000.2761520975415     
   20.000000067458750     
   20.000000451577563     
   20.000000218506678     
   20.000000268378418     
   904.74722259655607     
   20.000229482342917     
   20.000000366337503     
   20.000000515801126     
   27.107014099628728     
   25.145717828697059     
   20.000000192628246     
   20.000000055349449     
   20.001240226332019     
   20.000000135640054     
   1134.2200145095014     
   20.000000322799615     
   1031.0753826935979     
   20.000000147766926     
   851.46555048292748     
   20.000000051015125     
   966.44179277767523     
   769.39202652853930     
   1026.5302120256147     
   1201.5404493869223     
   1027.1803542705766     
   20.000000125581426     
   20.000000056177093     
   20.000000114471380     
   864.81627121126553     
   829.90693700501629     
   751.88667643974054     
   724.77090131427167     
   1110.6814970622722     
   652.93352923725024     
   20.000021879698608     
   20.000000159561775     
   20.000000700236150     
   20.000000617005711     
   1228.9991322567000     
   878.35108804852609     
   883.40227876520748     
   956.23792752885140     
   619.84337243112043     
   709.61582191265984     
   20.000000656065819     
   20.000000498386445     
   20.000002333784057     
   547.98897813247368     
   820.05275571185007     
   545.94585671126310     
   20.000000858075133     
   20.000003929469788     
   20.000005409738531     
   617.75030417699520     
   460.42288054235786     
   752.85682758181179     
   20.000002041300117     
   598.42609213828734     
   639.18743458270126     
   20.000000749687121     
   20.000003157526681     
   646.94479808729818     
   20.000008718219686     
   20.000003313143342     
   525.52749381507476     
   20.000006367484701     
   20.000002993590307     
   20.000002299643441     
   20.000009973328918     
   553.08324005023576     
   444.73907230443376     
   468.68790242765255     
   20.000000898707498     
   375.47212626376097     
   397.46355221074509     
   20.000020727706605     
   20.000026229271395     
   20.000001247648925     
   20.000026491129784     
   700.97418302478241     
   20.000064888372354     
   20.000079881466796     
   20.000102308651378     
   20.000032510868845     
   290.41794012615196     
   20.000052481632803     
   20.000041510014146     
   389.88471709814377     
   20.000103456758687     
   20.000065646080277     
   20.000001473756228     
   20.000152422600728     
   20.000132271757337     
   20.000099141389402     
   20.000246678850932     
   20.000082687083392     
   20.000580843853641     
   20.000704704172396     
   20.002034839226543     
   20.001346853657811     
   20.001102040620847     
   20.001659229021719     
   20.002992814062647     
   20.009571134897396     
   20.003693188036411     
   20.003020700005042     
   20.006634941867130     
   20.004491608274208     
   20.028939824989550     
   20.011695742959901     
   20.009658212270516     
   20.020445542152650     
   20.014093349164146     
   20.015408935501977     
   20.005456768757337     
   20.022119130253170     
   20.017162031350427     
   20.012038139722979     
   20.010652972068225     
   20.082448530978699     
   20.035020543046304     
   20.029195909202112     
   20.059580487820654     
   20.041812971877356     
   20.016961058474056     
   377.14512551065548     
   20.222995755186503     
   20.099245079921808     
   20.083363813726194     
   20.163490371794840     
   20.116796419743064     
   20.049855249622855     
   20.169425279908221     
   20.130665389836299     
   20.085488271104289     
   20.119339138452833     
   20.570734784975837     
   20.265718791764538     
   20.225363876122923     
   20.426004562419674     
   20.310767518112190     
   20.138659738041294     
   20.095379801810505     
   21.384754328810260     
   20.673637468634286     
   20.576618008994092     
   21.051350912393801     
   20.780959707978194     
   20.364416522761193     
   21.003409457502226     
   20.801514367868709     
   20.551400088094528     
   20.742915180756555     
   23.187854126724368     
   21.619077436351503     
   21.398476806373029     
   22.463584173072569     
   21.857592599843091     
   20.907441785371265     
   229.59721708696770     
   262.82166287528145     
   240.77719068835052     
   20.604234568158418     
   24.191442801245771     
   124.81940509807238     
   279.67360864290021     
   135.04690718383191     
   121.74960863364771     
   139.74267518219730     
   26.974227719358446     
   263.43298981136388     
   228.00516698159956     
   282.56749203825638     
   23.693940594634896     
   23.218478069143611     
   67.036692721902796     
   222.47191393118376     
   114.79480828017621     
   63.315915525553272     
   138.14367260450945     
   22.143335645059253     
   103.37100904545842     
   228.62027537656456     
   24.819647047930555     
   25.485245788114799     
   312.80350527019147     
   189.42049787181634     
   169.36464126461573     
   117.35687089112750     
   38.014588234252294     
   99.460403159415662     
   31.468903407188829     
   30.471032908284119     
   74.127948656190242     
   39.230084711921137     
   321.35767670852135     
   28.003693138697848     
   27.036811155106292     
   236.71200594495764     
   31.529664708042919     
   227.57014778057086     
   75.611877812684526     
   146.94829864001247     
   38.083324460833850     
   163.23504588683335     
   164.10188786311778     
   159.24384265937928     
   224.22045322828609     
   28.972333684705244     
   143.84084850134764     
   88.294835114500131     
   88.405452498454977     
   285.43898150283985     
   87.283652924026597     
   318.25025469501469     
   57.198100478707694     
   63.713044090076934     
   73.067524965014584     
   200.57423041588308     
   331.13338373574584     
   42.289211823102583     
   173.51625410428218     
   264.75823965395460     
   20.000235052990725     
   66.523237190008146     
   70.997429770121116     
   309.95016918564829     
   20.000714878347882     
   20.000311854536090     
   56.340394172441073     
   30.251669317599724     
   77.428679999745256     
   124.71587669787186     
   436.79035118449997     
   313.47073828977136     
   226.92619694107353     
   258.44672330588475     
   139.45332499465630     
   88.360918591372595     
   57.906922317963904     
   40.291567909727689     
   30.438926752283749     
   25.097073515647669     
   22.394514285723712     
   21.063888058164011     
   20.451054032620956     
   20.180579492292079     
   20.068593256263991     
   20.024281972751925     
   20.008393760179072     
   20.002671610053671     
   20.000817488118290     
   20.000543068154997     
   20.000357814481575     
   20.000473781041951     
   20.000152773704830     
   20.000203808752186     
   20.000040825778814     
   20.000010232502262     
   20.000002416384806     
   20.000000541549042     
   20.000250069910230     
   20.000000391884164     
   20.000001824281696     
   20.000008000990750     
   20.000033242585506     
   20.000129838518983     
   20.000311619290546     
   20.000476752464568     
   20.000385291370353     
   20.000727392081888     
   20.000590064326506     
   20.002493217797287     
   20.008043427263623     
   20.024532269012795     
   20.070784706414120     
   20.193107496882742     
   20.498378081468598     
   21.218954367052770     
   22.828421700188965     
   26.235950065411547     
   33.092441315178839     
   46.264451842707658     
   70.555455508438357     
   82.322476724582074     
   75.774379196267859     
   96.655309113475766     
   113.55308024628340     
   187.17016491522111     
   309.47075544957602     
   507.77148773089391     
   82.955288331527044     
   192.90226314254866     
   204.40060192522279     
   138.55889058312172     
   20.000161466299190     
   97.189670724022591     
   269.07803623676500     
   54.386659505241212     
   105.86087971910133     
   41.280123269305456     
   20.000200974165455     
   46.815720650031906     
   90.243590638103001     
   242.01488545043628     
   57.441050449278201     
   336.59133167167028     
   38.532489486721452     
   63.096309778113152     
   146.94688459152957     
   105.80432579236061     
   50.580777452683094     
   99.815706478956557     
   42.876281437572651     
   44.301255356094465     
   39.458907996754185     
   54.294465346939468     
   47.908838980515242     
   118.62102802815284     
   270.15563871958051     
   160.78310470630706     
   103.93757639995684     
   43.337673411622816     
   31.440621933458743     
   53.272110531522785     
   100.67561333628990     
   64.993712754879610     
   49.193149021106933     
   61.369577116769072     
   34.684101937327476     
   85.303290434613118     
   36.899303520740688     
   37.410979730980593     
   32.068298016347143     
   35.350018629681664     
   34.087677703762786     
   137.39955152236999     
   37.788905173441002     
   140.17863806116765     
   29.072659214851477     
   33.437273801431523     
   85.501592537091781     
   31.054367925587954     
   24.184440151233645     
   29.291961892027540     
   86.401930471655092     
   77.605625342097596     
   90.560261832287367     
   28.596051557971620     
   25.414223721703856     
   172.27187026006555     
   24.527510997921976     
   203.35888901355881     
   27.377256693427377     
   26.791604696517950     
   21.871803181358089     
   24.617755639346306     
   25.730041704473148     
   194.10502508760527     
   24.273094340008921     
   25.244486501553641     
   24.234625362435917     
   24.448048416135112     
   22.047801457981574     
   24.028894322309807     
   22.435152271507977     
   23.431395928848385     
   23.104179047762372     
   22.632405649305486     
   20.787204608389782     
   21.882036922153805     
   22.367511283882873     
   21.993333996867936     
   21.790531003095722     
   20.879681419290712     
   21.045087678634811     
   21.510698066672163     
   21.355442879381361     
   21.137199994049446     
   20.319622769511497     
   20.793662431264917     
   21.014627194593235     
   20.845248893114235     
   20.753497846737250     
   20.355576149345996     
   20.431068830106579     
   20.630341036942681     
   20.560579503206924     
   20.466991072750922     
   20.121622336751699     
   20.317697468876084     
   20.412903713406276     
   20.341610810457901     
   20.301735570345354     
   20.138667118429911     
   20.166893446123972     
   20.249941922203192     