# vtk DataFile Version 2.0
 temperature
 ASCII
 DATASET UNSTRUCTURED_GRID
 POINTS         773  double
   0.0000000000000000        0.0000000000000000        0.0000000000000000     
   3.5000000000000000        0.0000000000000000        0.0000000000000000     
   3.5000000000000000        40.000000000000000        0.0000000000000000     
   0.0000000000000000        40.000000000000000        0.0000000000000000     
  0.43750000000000000        0.0000000000000000        0.0000000000000000     
  0.87500000000000000        0.0000000000000000        0.0000000000000000     
   1.3125000000000000        0.0000000000000000        0.0000000000000000     
   1.7500000000000000        0.0000000000000000        0.0000000000000000     
   2.1875000000000000        0.0000000000000000        0.0000000000000000     
   2.6250000000000000        0.0000000000000000        0.0000000000000000     
   3.0625000000000000        0.0000000000000000        0.0000000000000000     
   3.5000000000000000       0.50000000000000000        0.0000000000000000     
   3.5000000000000000        1.0000000000000000        0.0000000000000000     
   3.5000000000000000        1.5000000000000000        0.0000000000000000     
   3.5000000000000000        2.0000000000000000        0.0000000000000000     
   3.5000000000000000        2.5000000000000000        0.0000000000000000     
   3.5000000000000000        3.0000000000000000        0.0000000000000000     
   3.5000000000000000        3.5000000000000000        0.0000000000000000     
   3.5000000000000000        4.0000000000000000        0.0000000000000000     
   3.5000000000000000        4.5000000000000000        0.0000000000000000     
   3.5000000000000000        5.0000000000000000        0.0000000000000000     
   3.5000000000000000        5.5000000000000000        0.0000000000000000     
   3.5000000000000000        6.0000000000000000        0.0000000000000000     
   3.5000000000000000        6.5000000000000000        0.0000000000000000     
   3.5000000000000000        7.0000000000000000        0.0000000000000000     
   3.5000000000000000        7.5000000000000000        0.0000000000000000     
   3.5000000000000000        8.0000000000000000        0.0000000000000000     
   3.5000000000000000        8.5000000000000000        0.0000000000000000     
   3.5000000000000000        9.0000000000000000        0.0000000000000000     
   3.5000000000000000        9.5000000000000000        0.0000000000000000     
   3.5000000000000000        10.000000000000000        0.0000000000000000     
   3.5000000000000000        10.500000000000000        0.0000000000000000     
   3.5000000000000000        11.000000000000000        0.0000000000000000     
   3.5000000000000000        11.500000000000000        0.0000000000000000     
   3.5000000000000000        12.000000000000000        0.0000000000000000     
   3.5000000000000000        12.500000000000000        0.0000000000000000     
   3.5000000000000000        13.000000000000000        0.0000000000000000     
   3.5000000000000000        13.500000000000000        0.0000000000000000     
   3.5000000000000000        14.000000000000000        0.0000000000000000     
   3.5000000000000000        14.500000000000000        0.0000000000000000     
   3.5000000000000000        15.000000000000000        0.0000000000000000     
   3.5000000000000000        15.500000000000000        0.0000000000000000     
   3.5000000000000000        16.000000000000000        0.0000000000000000     
   3.5000000000000000        16.500000000000000        0.0000000000000000     
   3.5000000000000000        17.000000000000000        0.0000000000000000     
   3.5000000000000000        17.500000000000000        0.0000000000000000     
   3.5000000000000000        18.000000000000000        0.0000000000000000     
   3.5000000000000000        18.500000000000000        0.0000000000000000     
   3.5000000000000000        19.000000000000000        0.0000000000000000     
   3.5000000000000000        19.500000000000000        0.0000000000000000     
   3.5000000000000000        20.000000000000000        0.0000000000000000     
   3.5000000000000000        20.500000000000000        0.0000000000000000     
   3.5000000000000000        21.000000000000000        0.0000000000000000     
   3.5000000000000000        21.500000000000000        0.0000000000000000     
   3.5000000000000000        22.000000000000000        0.0000000000000000     
   3.5000000000000000        22.500000000000000        0.0000000000000000     
   3.5000000000000000        23.000000000000000        0.0000000000000000     
   3.5000000000000000        23.500000000000000        0.0000000000000000     
   3.5000000000000000        24.000000000000000        0.0000000000000000     
   3.5000000000000000        24.500000000000000        0.0000000000000000     
   3.5000000000000000        25.000000000000000        0.0000000000000000     
   3.5000000000000000        25.500000000000000        0.0000000000000000     
   3.5000000000000000        26.000000000000000        0.0000000000000000     
   3.5000000000000000        26.500000000000000        0.0000000000000000     
   3.5000000000000000        27.000000000000000        0.0000000000000000     
   3.5000000000000000        27.500000000000000        0.0000000000000000     
   3.5000000000000000        28.000000000000000        0.0000000000000000     
   3.5000000000000000        28.500000000000000        0.0000000000000000     
   3.5000000000000000        29.000000000000000        0.0000000000000000     
   3.5000000000000000        29.500000000000000        0.0000000000000000     
   3.5000000000000000        30.000000000000000        0.0000000000000000     
   3.5000000000000000        30.500000000000000        0.0000000000000000     
   3.5000000000000000        31.000000000000000        0.0000000000000000     
   3.5000000000000000        31.500000000000000        0.0000000000000000     
   3.5000000000000000        32.000000000000000        0.0000000000000000     
   3.5000000000000000        32.500000000000000        0.0000000000000000     
   3.5000000000000000        33.000000000000000        0.0000000000000000     
   3.5000000000000000        33.500000000000000        0.0000000000000000     
   3.5000000000000000        34.000000000000000        0.0000000000000000     
   3.5000000000000000        34.500000000000000        0.0000000000000000     
   3.5000000000000000        35.000000000000000        0.0000000000000000     
   3.5000000000000000        35.500000000000000        0.0000000000000000     
   3.5000000000000000        36.000000000000000        0.0000000000000000     
   3.5000000000000000        36.500000000000000        0.0000000000000000     
   3.5000000000000000        37.000000000000000        0.0000000000000000     
   3.5000000000000000        37.500000000000000        0.0000000000000000     
   3.5000000000000000        38.000000000000000        0.0000000000000000     
   3.5000000000000000        38.500000000000000        0.0000000000000000     
   3.5000000000000000        39.000000000000000        0.0000000000000000     
   3.5000000000000000        39.500000000000000        0.0000000000000000     
   3.0625000000000000        40.000000000000000        0.0000000000000000     
   2.6250000000000000        40.000000000000000        0.0000000000000000     
   2.1875000000000000        40.000000000000000        0.0000000000000000     
   1.7500000000000000        40.000000000000000        0.0000000000000000     
   1.3125000000000000        40.000000000000000        0.0000000000000000     
  0.87500000000000000        40.000000000000000        0.0000000000000000     
  0.43750000000000000        40.000000000000000        0.0000000000000000     
   0.0000000000000000        39.500000000000000        0.0000000000000000     
   0.0000000000000000        39.000000000000000        0.0000000000000000     
   0.0000000000000000        38.500000000000000        0.0000000000000000     
   0.0000000000000000        38.000000000000000        0.0000000000000000     
   0.0000000000000000        37.500000000000000        0.0000000000000000     
   0.0000000000000000        37.000000000000000        0.0000000000000000     
   0.0000000000000000        36.500000000000000        0.0000000000000000     
   0.0000000000000000        36.000000000000000        0.0000000000000000     
   0.0000000000000000        35.500000000000000        0.0000000000000000     
   0.0000000000000000        35.000000000000000        0.0000000000000000     
   0.0000000000000000        34.500000000000000        0.0000000000000000     
   0.0000000000000000        34.000000000000000        0.0000000000000000     
   0.0000000000000000        33.500000000000000        0.0000000000000000     
   0.0000000000000000        33.000000000000000        0.0000000000000000     
   0.0000000000000000        32.500000000000000        0.0000000000000000     
   0.0000000000000000        32.000000000000000        0.0000000000000000     
   0.0000000000000000        31.500000000000000        0.0000000000000000     
   0.0000000000000000        31.000000000000000        0.0000000000000000     
   0.0000000000000000        30.500000000000000        0.0000000000000000     
   0.0000000000000000        30.000000000000000        0.0000000000000000     
   0.0000000000000000        29.500000000000000        0.0000000000000000     
   0.0000000000000000        29.000000000000000        0.0000000000000000     
   0.0000000000000000        28.500000000000000        0.0000000000000000     
   0.0000000000000000        28.000000000000000        0.0000000000000000     
   0.0000000000000000        27.500000000000000        0.0000000000000000     
   0.0000000000000000        27.000000000000000        0.0000000000000000     
   0.0000000000000000        26.500000000000000        0.0000000000000000     
   0.0000000000000000        26.000000000000000        0.0000000000000000     
[...]
 CELL_DATA        1368
 SCALARS T double
 LOOKUP_TABLE default
   21.341359525778099     
   26.941011472518142     
   1678.1107226877825     
   47.876673581888092     
   20.000008690496273     
   22.490090259413979     
   1281.0025165077670     
   22.330256879099700     
   20.220678694923798     
   21.969596823353591     
   20.328914741418082     
   41.784126197860715     
   21.929767843205269     
   50.466617166572682     
   43.146658148496542     
   1213.9796558739720     
   1679.3038463614375     
   20.634828526329095     
   20.586099965228644     
   23.726375341407589     
   20.493233830516463     
   20.045333748889767     
   1738.5258957652056     
   20.070600021118352     
   21.157392086655641     
   26.763078748752061     
   20.469676622178920     
   22.873769360878022     
   21.532237660534360     
   20.253671990115336     
   23.616253954298941     
   20.000014535403832     
   26.131108301910519     
   27.354837705159689     
   27.119648364965361     
   20.000012550050315     
   20.968342358540305     
   20.141766376410384     
   20.381778557010300     
   20.129669104636211     
   20.100488924354664     
   21.857227119213896     
   20.107272437691673     
   49.443211091920993     
   20.740591183007197     
   449.26906631003919     
   441.34041201425782     
   21.656090040930842     
   22.075173424858569     
   700.78952835457994     
   705.86712198955320     
   20.278755920309209     
   20.947102688789844     
   20.000011830242943     
   1709.8885845786699     
   20.000010453095801     
   20.000025148221681     
   20.043997015306701     
   20.025848291135766     
   20.053469670859727     
   20.000031199934615     
   47.557389515934929     
   20.082026349206430     
   20.000055418668826     
   23.260158851875961     
   23.986120110967402     
   20.220078224529971     
   23.782511308952841     
   20.398564323892145     
   20.509426611024583     
   20.000021432326477     
   1678.4244178130079     
   20.000036858629915     
   20.458996349771212     
   20.166077929161887     
   20.219584665194098     
   20.000076467964991     
   20.000165293865617     
   20.000018044917859     
   425.54857146956641     
   20.058972070160060     
   20.023945107706407     
   264.76902840925561     
   20.015474145787529     
   168.07041086368534     
   20.836104831766914     
   21.049761135939278     
   421.57585951276695     
   20.037173126498914     
   864.29743510654248     
   20.083817381822392     
   20.110359696068112     
   71.853285137436401     
   20.000474538026431     
   808.08531404903874     
   20.007604547576094     
   49.824066937503552     
   20.000224741528069     
   20.008578959572834     
   20.000094702677039     
   262.97077530801010     
   20.000065362103697     
   223.83635486148580     
   227.50189620974362     
   20.098640640943486     
   20.031400081818834     
   20.000017544966575     
   20.205094525814896     
   20.000015109593004     
   20.000109828379113     
   30.697297103326875     
   533.85701682022977     
   30.035702762426059     
   20.004630137846782     
   20.000045991563127     
   20.000008696984928     
   143.60017603540538     
   25.391931875432707     
   145.73842300394466     
   20.002416580846109     
   20.000065914122743     
   20.004154466292142     
   20.024967602459299     
   166.95982100479489     
   22.821986942885850     
   323.17275080645902     
   20.188516299900122     
   20.239490643034436     
   20.018816135787926     
   21.016639671059458     
   20.000021598856286     
   20.005592619393560     
   544.67491818784015     
   21.426826359913026     
   20.000193530067971     
   20.000639274676640     
   20.696330498460849     
   94.478754314716937     
   1322.9177048375418     
   95.944391121663614     
   1011.0141142257289     
   488.49287293674712     
   204.29610813333207     
   20.006292415087330     
   20.013962906381483     
   20.001799160918655     
   511.46694116015732     
   20.010333664833293     
   20.000138022979701     
   20.000195422905822     
   20.002362810915759     
   327.39970923899000     
   20.013851590478893     
   64.094547379241348     
   64.844848507367558     
   20.000276215899291     
   20.001559251647514     
   130.42534255592909     
   20.019286659059734     
   20.000550219843063     
   20.000319318801662     
   20.000044936328205     
   43.147600128683699     
   71.386061204462976     
   20.041806542768590     
   23.081756945014774     
   20.000556997242640     
   20.000008074179213     
   253.25731429839507     
   206.88700230355280     
   20.003388184610028     
   20.001124033119726     
   20.000396957433278     
   49.568585385246934     
   57.957065479306699     
   20.001239314163758     
   1016.0978191729524     
   20.804560025476036     
   131.68862373090121     
   20.000780126296853     
   172.18739369541555     
   163.48328839475781     
   41.571357301032478     
   20.000892462789601     
   37.801908881335684     
   20.002216002427556     
   20.020781081888554     
   20.027858983783833     
   64.327677030060613     
   20.000016936193326     
   268.90639714092765     
   20.182110442963843     
   28.104943624302546     
   28.110459021585363     
   32.701856320982571     
   20.000009095076781     
   586.32299983774442     
   20.002351440389766     
   20.000015007575470     
   20.001094235237321     
   29.824869764735148     
   20.001525772648773     
   112.00674600551311     
   20.011549692027074     
   20.015518954799376     
   20.004547131290039     
   106.51396099571458     
   25.366973587437055     
   20.001244909638789     
   20.000017348477247     
   20.001735641153253     
   20.000028963080140     
   26.877504909198734     
   20.000007972970305     
   20.005178021473895     
   20.000805327777705     
   20.008429075147827     
   20.011475189651765     
   20.233618117961086     
   20.002109578192695     
   25.275972413344505     
   20.000019920850626     
   20.017907952278790     
   61.972834531107857     
   20.008529701969806     
   58.564272263633981     
   20.009608210937266     
   20.000575761910657     
   20.000011757037928     
   20.000664667925875     
   20.002982124523736     
   20.000024635198553     
   22.760637878796778     
   20.000134822616769     
   23.637189219211045     
   20.000475406878600     
   20.020751896788788     
   20.000013021252400     
   21.395312037883492     
   20.023512093173416     
   35.901357564793976     
   41.875063039945573     
   336.23819029725956     
   21.464206712073679     
   58.391137245855582     
   74.814454115635925     
   1436.9386932191678     
   71.446044043896393     
   20.680145385794283     
   20.000409695146342     
   20.000204836646237     
   20.049338011896083     
   20.003302488013301     
   21.865032803264786     
   1519.0122914422307     
   20.000167307931132     
   20.000337682822103     
   20.000924881833907     
   20.055527568464235     
   20.003762614772217     
   20.000024532301879     
   747.91783285071017     
   577.17812168053933     
   20.113067303075404     
   20.027676325129580     
   20.007681531819745     
   20.925596281375032     
   20.000027816635477     
   20.126510971034961     
   1462.4054443713887     
   33.045289228397721     
   20.355397497606244     
   20.002726376071735     
   20.002952504743494     
   20.002142048144563     
   20.000026840639972     
   20.250113756112270     
   20.000024380190133     
   1386.4512764749900     
   1189.9287925082599     
   20.000006230968211     
   1256.2293307479147     
   20.000027978329104     
   20.278227166603020     
   1370.4946821485169     
   20.025177545877320     
   33.721759644933449     
   872.34507477667694     
   1393.5075310338736     
   20.000073620977830     
   27.092734443859960     
   20.000012499874959     
   20.000290983502527     
   20.002451208716142     
   20.003393020711009     
   20.000143768870750     
   20.000016105176684     
   20.000081298796665     
   20.000013253462189     
   925.83624714718133     
   23.754738225942212     
   20.000237734062903     
   665.11906353522920     
   20.000011619691922     
   20.000116610031800     
   21.927302558100251     
   20.957005528349733     
   20.000008221562570     
   20.000011175146991     
   1181.2444862044006     
   20.000018807777028     
   1292.5340521181811     
   1075.2250182811401     
   20.003035563521390     
   20.002480314340904     
   1482.5842763972257     
   33.105881422671914     
   340.28355152610209     
   20.075183616865953     
   20.000015987746551     
   20.000008949222970     
   20.000031460249104     
   785.52550757354209     
   20.001302271384439     
   20.000021480039877     
   20.000389867418512     
   20.001156285004555     
   20.015431649475762     
   1322.6967214937167     
   766.07691084026681     
   20.000012983702064     
   20.000026384879572     
   54.483217953642971     
   1205.4799259641329     
   20.001278217748869     
   20.000039011347756     
   1216.2397881589052     
   1294.2742946602018     
   20.017395952508661     
   20.006211637057856     
   1012.5563526796736     
   20.000022502053721     
   20.000073396471272     
   20.000048728271771     
   20.000050926204111     
   917.79639144616158     
   20.007046484059899     
   20.000070038198313     
   20.000083846492814     
   33.136077638586237     
   29.678919184856458     
   20.000039406264513     
   20.000016879027537     
   20.020707279311203     
   20.000038257212104     
   1145.9371343153812     
   20.000056608119561     
   1043.8631858583451     
   20.000035500750062     
   865.94075037800110     
   20.000016878341810     
   980.75146375141469     
   784.47705914130961     
   1036.6739735541244     
   1211.8356413606330     
   1042.2669580513846     
   20.000035622804997     
   20.000018593613532     
   20.000027368593976     
   877.06030281397500     
   846.38628137388878     
   769.05764430477132     
   741.19547830834733     
   1124.4699923861906     
   669.77730001501141     
   20.001128426572539     
   20.000035387250783     
   20.000105758205287     
   20.000101011201167     
   1235.0148520517421     
   895.92485868811434     
   898.54971825847042     
   972.59382085174263     
   635.69632263998824     
   727.95548103349302     
   20.000115451504715     
   20.000095117051163     
   20.000242235664803     
   570.93000215587972     
   838.69303317267600     
   568.62252943178009     
   20.000119810557482     
   20.000328044515516     
   20.000420883638697     
   635.79857594915086     
   477.67817950798900     
   772.52883906872341     
   20.000211856718103     
   620.69950589892971     
   658.04671031339831     
   20.000104723016364     
   20.000304890465557     
   668.35380867694437     
   20.000589436535215     
   20.000297963888801     
   544.96954158481560     
   20.000461189188549     
   20.000335594207531     
   20.000278517601423     
   20.000674458106282     
   571.39519038247806     
   465.40761959937572     
   488.16991589709670     
   20.000116203574429     
   396.97239457368858     
   417.94665716451431     
   20.001312072262671     
   20.001547806898035     
   20.000149922392545     
   20.001475097519236     
   721.59342024261491     
   20.002925245122881     
   20.003378560269709     
   20.004036739786834     
   20.001688341676289     
   305.01127993357613     
   20.002529010812857     
   20.002140378353900     
   412.21619612082583     
   20.004083691595554     
   20.002959882200535     
   20.000164584470415     
   20.004640249803373     
   20.004030628205083     
   20.003212251631183     
   20.007532078260738     
   20.003487897758241     
   20.013837223269732     
   20.015831601929609     
   20.033944120741136     
   20.025280082242421     
   20.021929541782438     
   20.029365960007652     
   20.044572988130124     
   20.102668576437946     
   20.052042566434785     
   20.045022721033803     
   20.079157485710677     
   20.059823234412995     
   20.228280859346459     
   20.119121398161955     
   20.103683512248917     
   20.178108948188552     
   20.136138097198252     
   20.121642384018230     
   20.068849915752342     
   20.157929879237020     
   20.128564229042937     
   20.099643619033891     
   20.093172617799571     
   20.488911768704305     
   20.263226319271265     
   20.230484846375838     
   20.387032885361091     
   20.299117285835333     
   20.155746202692416     
   400.86789335373828     
   21.014832286802356     
   20.562218819919703     
   20.494458243636974     
   20.810068320914297     
   20.632863050284733     
   20.340218479164598     
   20.705138561432580     
   20.568951610598379     
   20.424881522176921     
   20.543313517248095     
   22.037394367231879     
   21.159604569272560     
   21.025914745506210     
   21.643718034714400     
   21.300915387849912     
   20.718337267258221     
   20.451573128974239     
   23.963980943465380     
   22.314592846159528     
   22.059062900171170     
   23.229494414599987     
   22.583309508581099     
   21.465011931847776     
   22.673597999968955     
   22.211777093249328     
   21.698996117601382     
   22.127066095728019     
   27.483292528528420     
   24.478052480056085     
   24.004753847777554     
   26.158934045885559     
   24.966575930460081     
   22.893433096664889     
   250.01702252308743     
   286.53623205937470     
   260.36000451782320     
   21.787049155409179     
   29.264344254198793     
   143.06424978869174     
   302.83935383735684     
   156.65806587318403     
   142.42784432992710     
   159.04813481987915     
   33.729513663646671     
   281.24575702879361     
   252.16930260084885     
   302.00569157775027     
   28.409390370274615     
   27.557959465089041     
   81.555535359134993     
   245.99262407990196     
   135.42217801631691     
   76.632032725486255     
   160.36028524721149     
   25.542080694645257     
   122.96699193221893     
   245.67899080508099     
   30.329154995888814     
   31.412309062001000     
   336.39526569281946     
   212.55171614280604     
   191.66500140700558     
   137.12704932716596     
   47.906917024483391     
   115.51520764515551     
   40.367729384750255     
   38.631830311115493     
   89.766084116232278     
   49.211545767155918     
   341.36967308974090     
   35.342258662604785     
   33.859473371944055     
   259.86875546901780     
   40.021674382340969     
   249.72197748838775     
   92.848659947191209     
   165.80142830716440     
   47.433316526734849     
   184.59960200099806     
   183.89338409910337     
   181.72368280908105     
   242.44870367069655     
   36.773207993076987     
   165.44539205003719     
   107.99280308802166     
   106.89256472205267     
   306.97759513997528     
   102.05260001697700     
   340.22871193351739     
   69.450028440268184     
   78.182797252751115     
   89.503036067954696     
   223.46223506551169     
   354.11074762592386     
   53.785765860309816     
   194.59461154469881     
   276.32033945364327     
   20.005930915985569     
   81.924027583882705     
   87.918703690914853     
   322.25088763792934     
   20.013394881843734     
   20.007416762325413     
   70.950239760555021     
   38.646966537558818     
   94.030436773524286     
   144.40935463867081     
   445.92674331759275     
   324.43761216120089     
   239.10694998178764     
   271.36636389692040     
   151.96769360128414     
   100.11429253205122     
   68.007689348539216     
   48.346944718203865     
   36.445199802089967     
   29.256516318879704     
   25.126253120757362     
   22.743782180103040     
   21.434614711184054     
   20.724347782519576     
   20.354167850659941     
   20.165323123714163     
   20.076763301485787     
   20.033571073792896     
   20.014424603043889     
   20.010773016938085     
   20.007988545744396     
   20.009980578852957     
   20.004361565920682     
   20.005481632639242     
   20.001715646296546     
   20.000644616907348     
   20.000233006950872     
   20.000081385239362     
   20.007632283033949     
   20.000080434281497     
   20.000236889567176     
   20.000670682120727     
   20.001831232410886     
   20.004800753676417     
   20.008929882937963     
   20.012077634950888     
   20.010371882301950     
   20.016310729031321     
   20.014041688751508     
   20.039281801870953     
   20.090977144455252     
   20.203367037351182     
   20.439181914678674     
   20.916304823204197     
   21.848527375660890     
   23.612802976824909     
   26.849822748487895     
   32.619487875037670     
   42.643150467082890     
   59.701825186498709     
   88.272286590479283     
   101.44938006141578     
   94.117723482064790     
   117.15133448376081     
   135.30282758068714     
   211.83540932940065     
   334.99609539571213     
   531.37770117736261     
   101.19404972066955     
   214.77582015301360     
   225.84198977741232     
   159.22299030023757     
   20.005596993995674     
   116.66653911450700     
   291.27982904119460     
   68.231371434862226     
   124.62175206419207     
   52.944986730008381     
   20.006542599508425     
   59.789178359426352     
   107.95044215865884     
   263.65119405687557     
   71.575309114880312     
   357.78156537676352     
   49.325444557756960     
   78.317227228290491     
   167.43063500536076     
   123.23343809930633     
   63.578608832876114     
   118.56494048353676     
   53.952188113239124     
   56.080195935869021     
   50.097346853525799     
   68.974718022392992     
   60.639749043683601     
   137.17907242352683     
   290.38726369857505     
   178.52197234792095     
   124.96676945740413     
   55.371831260861811     
   39.375408578604976     
   67.527269036615962     
   118.27703547280331     
   80.930931522490766     
   62.510361084218324     
   76.972348608976006     
   44.305929803141822     
   102.93841399167198     
   47.332313707003181     
   48.156271466871480     
   40.463221031431964     
   44.829718068964638     
   43.305464976679986     
   154.91351659091453     
   48.138934830351573     
   156.81399458500090     
   36.558691282240062     
   42.732832789315530     
   100.90713579193802     
   39.184844678542312     
   28.731423182640718     
   36.595768354468412     
   103.11473219777912     
   93.156267610013813     
   107.08415651724073     
   35.681801247132512     
   30.700098735558420     
   191.55860628364462     
   29.220189741867447     
   222.93930049691434     
   33.829791655627709     
   33.042474432145426     
   24.693482342166117     
   29.123198168622679     
   31.340700510366684     
   214.31500079713217     
   28.665957661140972     
   30.649413714499769     
   29.105469582105385     
   29.302695922001362     
   24.986851843930719     
   28.665044673417253     
   25.743467266862822     
   27.606584769754726     
   27.084959094311429     
   26.198989291734147     
   22.425957260418510     
   24.881626964117519     
   25.756717523605662     
   25.009200309610382     
   24.644750897594427     
   22.616483611693756     
   23.006466739457057     
   24.054031327497068     
   23.759213472423490     
   23.267134032715777     
   21.238179497992558     
   22.539779693068454     
   23.020889309888858     
   22.611633509040619     
   22.411740516091211     
   21.328190994400185     
   21.547686453036114     
   22.094838837250293     
   21.932805180174157     
   21.673593242615006     
   20.605283985284405     
   21.282487220667395     
   21.539549991279280     
   21.326196666611459     
   21.218180202065607     
   20.660149501099792     
   20.764089114633176     
   21.051655144640051     