# vtk DataFile Version 2.0
 temperature
 ASCII
 DATASET UNSTRUCTURED_GRID
 POINTS         773  double
   0.0000000000000000        0.0000000000000000        0.0000000000000000     
   3.5000000000000000        0.0000000000000000        0.0000000000000000     
   3.5000000000000000        40.000000000000000        0.0000000000000000     
   0.0000000000000000        40.000000000000000        0.0000000000000000     
  0.43750000000000000        0.0000000000000000        0.0000000000000000     
  0.87500000000000000        0.0000000000000000        0.0000000000000000     
   1.3125000000000000        0.0000000000000000        0.0000000000000000     
   1.7500000000000000        0.0000000000000000        0.0000000000000000     
   2.1875000000000000        0.0000000000000000        0.0000000000000000     
   2.6250000000000000        0.0000000000000000        0.0000000000000000     
   3.0625000000000000        0.0000000000000000        0.0000000000000000     
   3.5000000000000000       0.50000000000000000        0.0000000000000000     
   3.5000000000000000        1.0000000000000000        0.0000000000000000     
   3.5000000000000000        1.5000000000000000        0.0000000000000000     
   3.5000000000000000        2.0000000000000000        0.0000000000000000     
   3.5000000000000000        2.5000000000000000        0.0000000000000000     
   3.5000000000000000        3.0000000000000000        0.0000000000000000     
   3.5000000000000000        3.5000000000000000        0.0000000000000000     
   3.5000000000000000        4.0000000000000000        0.0000000000000000     
   3.5000000000000000        4.5000000000000000        0.0000000000000000     
   3.5000000000000000        5.0000000000000000        0.0000000000000000     
   3.5000000000000000        5.5000000000000000        0.0000000000000000     
   3.5000000000000000        6.0000000000000000        0.0000000000000000     
   3.5000000000000000        6.5000000000000000        0.0000000000000000     
   3.5000000000000000        7.0000000000000000        0.0000000000000000     
   3.5000000000000000        7.5000000000000000        0.0000000000000000     
   3.5000000000000000        8.0000000000000000        0.0000000000000000     
   3.5000000000000000        8.5000000000000000        0.0000000000000000     
   3.5000000000000000        9.0000000000000000        0.0000000000000000     
   3.5000000000000000        9.5000000000000000        0.0000000000000000     
   3.5000000000000000        10.000000000000000        0.0000000000000000     
   3.5000000000000000        10.500000000000000        0.0000000000000000     
   3.5000000000000000        11.000000000000000        0.0000000000000000     
   3.5000000000000000        11.500000000000000        0.0000000000000000     
   3.5000000000000000        12.000000000000000        0.0000000000000000     
   3.5000000000000000        12.500000000000000        0.0000000000000000     
   3.5000000000000000        13.000000000000000        0.0000000000000000     
   3.5000000000000000        13.500000000000000        0.0000000000000000     
   3.5000000000000000        14.000000000000000        0.0000000000000000     
   3.5000000000000000        14.500000000000000        0.0000000000000000     
   3.5000000000000000        15.000000000000000        0.0000000000000000     
   3.5000000000000000        15.500000000000000        0.0000000000000000     
   3.5000000000000000        16.000000000000000        0.0000000000000000     
   3.5000000000000000        16.500000000000000        0.0000000000000000     
   3.5000000000000000        17.000000000000000        0.0000000000000000     
   3.5000000000000000        17.500000000000000        0.0000000000000000     
   3.5000000000000000        18.000000000000000        0.0000000000000000     
   3.5000000000000000        18.500000000000000        0.0000000000000000     
   3.5000000000000000        19.000000000000000        0.0000000000000000     
   3.5000000000000000        19.500000000000000        0.0000000000000000     
   3.5000000000000000        20.000000000000000        0.0000000000000000     
   3.5000000000000000        20.500000000000000        0.0000000000000000     
   3.5000000000000000        21.000000000000000        0.0000000000000000     
   3.5000000000000000        21.500000000000000        0.0000000000000000     
   3.5000000000000000        22.000000000000000        0.0000000000000000     
   3.5000000000000000        22.500000000000000        0.0000000000000000     
   3.5000000000000000        23.000000000000000        0.0000000000000000     
   3.5000000000000000        23.500000000000000        0.0000000000000000     
   3.5000000000000000        24.000000000000000        0.0000000000000000     
   3.5000000000000000        24.500000000000000        0.0000000000000000     
   3.5000000000000000        25.000000000000000        0.0000000000000000     
   3.5000000000000000        25.500000000000000        0.0000000000000000     
   3.5000000000000000        26.000000000000000        0.0000000000000000     
   3.5000000000000000        26.500000000000000        0.0000000000000000     
   3.5000000000000000        27.000000000000000        0.0000000000000000     
   3.5000000000000000        27.500000000000000        0.0000000000000000     
   3.5000000000000000        28.000000000000000        0.0000000000000000     
   3.5000000000000000        28.500000000000000        0.0000000000000000     
   3.5000000000000000        29.000000000000000        0.0000000000000000     
   3.5000000000000000        29.500000000000000        0.0000000000000000     
   3.5000000000000000        30.000000000000000        0.0000000000000000     
   3.5000000000000000        30.500000000000000        0.0000000000000000     
   3.5000000000000000        31.000000000000000        0.0000000000000000     
   3.5000000000000000        31.500000000000000        0.0000000000000000     
   3.5000000000000000        32.000000000000000        0.0000000000000000     
   3.5000000000000000        32.500000000000000        0.0000000000000000     
   3.5000000000000000        33.000000000000000        0.0000000000000000     
   3.5000000000000000        33.500000000000000        0.0000000000000000     
   3.5000000000000000        34.000000000000000        0.0000000000000000     
   3.5000000000000000        34.500000000000000        0.0000000000000000     
   3.5000000000000000        35.000000000000000        0.0000000000000000     
   3.5000000000000000        35.500000000000000        0.0000000000000000     
   3.5000000000000000        36.000000000000000        0.0000000000000000     
   3.5000000000000000        36.500000000000000        0.0000000000000000     
   3.5000000000000000        37.000000000000000        0.0000000000000000     
   3.5000000000000000        37.500000000000000        0.0000000000000000     
   3.5000000000000000        38.000000000000000        0.0000000000000000     
   3.5000000000000000        38.500000000000000        0.0000000000000000     
   3.5000000000000000        39.000000000000000        0.0000000000000000     
   3.5000000000000000        39.500000000000000        0.0000000000000000     
   3.0625000000000000        40.000000000000000        0.0000000000000000     
   2.6250000000000000        40.000000000000000        0.0000000000000000     
   2.1875000000000000        40.000000000000000        0.0000000000000000     
   1.7500000000000000        40.000000000000000        0.0000000000000000     
   1.3125000000000000        40.000000000000000        0.0000000000000000     
  0.87500000000000000        40.000000000000000        0.0000000000000000     
  0.43750000000000000        40.000000000000000        0.0000000000000000     
   0.0000000000000000        39.500000000000000        0.0000000000000000     
   0.0000000000000000        39.000000000000000        0.0000000000000000     
   0.0000000000000000        38.500000000000000        0.0000000000000000     
   0.0000000000000000        38.000000000000000        0.0000000000000000     
   0.0000000000000000        37.500000000000000        0.0000000000000000     
   0.0000000000000000        37.000000000000000        0.0000000000000000     
   0.0000000000000000        36.500000000000000        0.0000000000000000     
   0.0000000000000000        36.000000000000000        0.0000000000000000     
   0.0000000000000000        35.500000000000000        0.0000000000000000     
   0.0000000000000000        35.000000000000000        0.0000000000000000     
   0.0000000000000000        34.500000000000000        0.0000000000000000     
   0.0000000000000000        34.000000000000000        0.0000000000000000     
   0.0000000000000000        33.500000000000000        0.0000000000000000     
   0.0000000000000000        33.000000000000000        0.0000000000000000     
   0.0000000000000000        32.500000000000000        0.0000000000000000     
   0.0000000000000000        32.000000000000000        0.0000000000000000     
   0.0000000000000000        31.500000000000000        0.0000000000000000     
   0.0000000000000000        31.000000000000000        0.0000000000000000     
   0.0000000000000000        30.500000000000000        0.0000000000000000     
   0.0000000000000000        30.000000000000000        0.0000000000000000     
   0.0000000000000000        29.500000000000000        0.0000000000000000     
   0.0000000000000000        29.000000000000000        0.0000000000000000     
   0.0000000000000000        28.500000000000000        0.0000000000000000     
   0.0000000000000000        28.000000000000000        0.0000000000000000     
   0.0000000000000000        27.500000000000000        0.0000000000000000     
   0.0000000000000000        27.000000000000000        0.0000000000000000     
   0.0000000000000000        26.500000000000000        0.0000000000000000     
   0.0000000000000000        26.000000000000000        0.0000000000000000     
[...]
 CELL_DATA        1368
 SCALARS T double
 LOOKUP_TABLE default
   21.139129739875493     
   26.249327577096178     
   1677.5969663328631     
   46.663032812746010     
   20.000003501503137     
   22.162644683741053     
   1280.5507978428166     
   22.012835124646813     
   20.171319724750692     
   21.692481616867418     
   20.260176974878497     
   40.562521705389663     
   21.640301302140198     
   49.132172561012140     
   41.900299218889387     
   1213.5174099925857     
   1678.7776966002775     
   20.515757357214735     
   20.472844627720086     
   23.265854746834428     
   20.395478831211392     
   20.032213220202532     
   1738.1217706305349     
   20.051281743346561     
   20.979222523028078     
   26.118960030587385     
   20.371612444343292     
   22.506897023667332     
   21.301277583221985     
   20.197865414361690     
   23.186691278841433     
   20.000005999163609     
   25.498587435768375     
   26.645347676952454     
   26.460924424427077     
   20.000005139849044     
   20.795522566852128     
   20.106251644842168     
   20.302090485460340     
   20.096402787544058     
   20.073003677808281     
   21.586998319371386     
   20.079164564970057     
   48.030188331330358     
   20.604960989722141     
   446.41950220250277     
   438.53260777187432     
   21.399795725339136     
   21.773384147727576     
   699.79298881140994     
   704.76598549374603     
   20.219363388107261     
   20.783243310814488     
   20.000004837911867     
   1709.5477908702553     
   20.000004251363364     
   20.000010741430529     
   20.030745994754323     
   20.017780509772148     
   20.038226736974057     
   20.000013503653729     
   46.246101646511526     
   20.059600880399248     
   20.000024862822908     
   22.844538890914293     
   23.508857767373371     
   20.167127251463072     
   23.342918623701049     
   20.313243872791936     
   20.405660802500609     
   20.000009056791331     
   1678.0222958051786     
   20.000016135306275     
   20.365575696689788     
   20.125250425269570     
   20.168121173305220     
   20.000035091379381     
   20.000079559788212     
   20.000007535865201     
   422.59305694029592     
   20.042568993522366     
   20.016331259904280     
   261.63304066201528     
   20.010195894496213     
   165.04593419945695     
   20.683051833103029     
   20.867447059119101     
   418.63762105427190     
   20.025795354891748     
   863.42866818582115     
   20.060406768475357     
   20.080805734570873     
   69.599312074446772     
   20.000244293297570     
   807.23154032501816     
   20.004743153576680     
   48.056330607591214     
   20.000110516479509     
   20.005455864021798     
   20.000044031691157     
   259.85831764664420     
   20.000029674308092     
   222.04149136332774     
   225.59361183279475     
   20.072195502222158     
   20.021763993929813     
   20.000007327662750     
   20.158192545059087     
   20.000006245284144     
   20.000051585534873     
   29.866355888242481     
   531.37232599675679     
   29.077029979231078     
   20.002808363764085     
   20.000020391494878     
   20.000003507671675     
   141.76257355624659     
   24.749834614556779     
   143.80227304219724     
   20.001380553224607     
   20.000029912340114     
   20.002519696174691     
   20.016722439438425     
   163.95877498529794     
   22.413091809005223     
   320.17903183934612     
   20.142220478772970     
   20.183068626046222     
   20.012502303580057     
   20.844960866027311     
   20.000009123271017     
   20.003422964898579     
   542.12894032857048     
   21.179912955043147     
   20.000094205345846     
   20.000335967572667     
   20.554818693105368     
   92.754417082221067     
   1322.3937610962380     
   94.128653013202779     
   1010.3790315158222     
   487.12819144713967     
   201.28352941714482     
   20.003889893243240     
   20.009114732100308     
   20.001039259828801     
   510.07235784200100     
   20.006625529063072     
   20.000065687369371     
   20.000095098571556     
   20.001350157355152     
   324.35978042617052     
   20.008957492772581     
   62.594295386682099     
   63.281657283334582     
   20.000137537784802     
   20.000900780439380     
   127.63715792471760     
   20.013044841979479     
   20.000286254116745     
   20.000160578880983     
   20.000019913980754     
   42.090878906274241     
   69.151796127088659     
   20.029474462271168     
   22.703749290999813     
   20.000289740827807     
   20.000003250460630     
   251.49251662351637     
   203.82695085117686     
   20.002036339371262     
   20.000622772347121     
   20.000202100459845     
   47.816175700149103     
   56.017743451853825     
   20.000709146015119     
   1015.3950356165129     
   20.661928957202512     
   128.86002636947006     
   20.000414896116560     
   170.25416079756405     
   161.62839154546029     
   40.096645376719877     
   20.000478986456915     
   36.678641462192772     
   20.001292224233371     
   20.013802743673946     
   20.018827538864976     
   62.545538255917947     
   20.000007071537940     
   267.06638350274227     
   20.138477132646550     
   27.422319119002118     
   27.420980483382419     
   31.626869285254283     
   20.000003756960229     
   585.03837052933841     
   20.001400209781778     
   20.000006273707157     
   20.000594488756995     
   28.886276011051020     
   20.000846436308500     
   110.14043814970702     
   20.007405533673193     
   20.010129015702137     
   20.002706261373326     
   104.73290488153738     
   24.807686974070947     
   20.000682292979597     
   20.000007332024289     
   20.000971269537867     
   20.000012520511252     
   26.141183796869768     
   20.000003292291417     
   20.003109630979445     
   20.000437008581873     
   20.005210557192779     
   20.007428390636939     
   20.179767657773624     
   20.001194303120798     
   24.647628433330638     
   20.000008410358941     
   20.012006619431919     
   60.229490273711185     
   20.005370332984199     
   56.592311346380441     
   20.005993321395518     
   20.000305897262404     
   20.000004915759835     
   20.000357296693537     
   20.001755570550369     
   20.000010529187477     
   22.360416919072382     
   20.000064130369562     
   23.157714316293116     
   20.000250205092065     
   20.013549205055327     
   20.000005444538520     
   21.153717023198169     
   20.015482477198116     
   34.845701838627988     
   40.376846347750096     
   334.10691411541870     
   21.236735980907529     
   56.874899000594475     
   73.149915616654340     
   1436.3260634038368     
   69.864365170748755     
   20.541900432622349     
   20.000213039157568     
   20.000101912874648     
   20.033918057713837     
   20.001926710423696     
   21.568607861756998     
   1518.3024992022952     
   20.000082401863107     
   20.000173928833867     
   20.000507587784590     
   20.038477109463471     
   20.002215509227984     
   20.000010882781766     
   746.29426185985892     
   576.01789321516890     
   20.081570350158977     
   20.018869556626242     
   20.004837528278223     
   20.751478599236332     
   20.000012027897007     
   20.091946393794725     
   1461.7415322262343     
   31.939697624348536     
   20.279162856972675     
   20.001573643215604     
   20.001774558076178     
   20.001261968577030     
   20.000011753805563     
   20.188729045221567     
   20.000010678914101     
   1385.3899344360682     
   1189.6618861667680     
   20.000002548807345     
   1255.2834799766358     
   20.000012409945228     
   20.211384121202340     
   1369.6653199513457     
   20.017019220571843     
   32.847109061073191     
   871.22076782303395     
   1392.6363304044751     
   20.000034626610688     
   26.333071867937750     
   20.000005113316384     
   20.000148064648720     
   20.001429392856362     
   20.002018946379604     
   20.000069942454203     
   20.000006806735744     
   20.000038235316666     
   20.000005603189479     
   924.60863462431075     
   23.259530374422766     
   20.000119760355908     
   663.45204051586302     
   20.000004912821179     
   20.000056137234818     
   21.620862619404633     
   20.776915855443178     
   20.000003336164056     
   20.000004617478325     
   1180.1301194223588     
   20.000008243661604     
   1291.8033981407136     
   1074.0048182241644     
   20.001805459367517     
   20.001461872101089     
   1481.6895704687852     
   32.248850932554632     
   338.23487797694895     
   20.054169874779618     
   20.000006685471170     
   20.000003740424614     
   20.000013611432333     
   784.07783739687579     
   20.000737302973288     
   20.000009182688476     
   20.000198449629234     
   20.000647719691703     
   20.009897285873365     
   1321.6748323180122     
   765.46570646025282     
   20.000005556639682     
   20.000011285280895     
   53.018705708364998     
   1204.0839832739039     
   20.000715820697430     
   20.000017503065386     
   1215.3514562179712     
   1293.0365465564860     
   20.011249638171904     
   20.003768572889570     
   1011.1665168422970     
   20.000009613616946     
   20.000034943502605     
   20.000022114548553     
   20.000023683921484     
   916.31581609879777     
   20.004312728601473     
   20.000032535013311     
   20.000039917819588     
   32.130615154660298     
   28.916480828289412     
   20.000018118494143     
   20.000007307818741     
   20.013882575036892     
   20.000016758851658     
   1144.6142408209180     
   20.000026641974078     
   1042.4159286926092     
   20.000015931227249     
   864.29380457334366     
   20.000007219623605     
   979.12779685122030     
   782.75553338005057     
   1035.5286531807615     
   1210.6754096376478     
   1040.5559396704734     
   20.000015591133003     
   20.000007952832537     
   20.000012290511147     
   875.67121959992460     
   844.50583482521949     
   767.09162568050738     
   739.31493899427073     
   1122.9101491695194     
   667.84194837654468     
   20.000638862850643     
   20.000016073363057     
   20.000050913333876     
   20.000048037476482     
   1234.3390966169211     
   893.91987000924303     
   896.82633176406955     
   970.73384141295753     
   633.87487933867510     
   725.84883816178206     
   20.000054309723783     
   20.000044198096727     
   20.000123417097715     
   568.25118647680949     
   836.55999068536278     
   565.97532825968267     
   20.000058366374034     
   20.000172718364279     
   20.000223973191698     
   633.71734641163710     
   475.67013094066118     
   770.26929779658280     
   20.000107941306066     
   618.11096509598622     
   655.87164148116346     
   20.000051013081400     
   20.000157044642201     
   665.87636673541419     
   20.000320379317312     
   20.000155131751452     
   542.70919460868197     
   20.000248079661546     
   20.000169012307833     
   20.000138637966014     
   20.000366574184966     
   569.27460843658935     
   462.98145924359170     
   485.89397697174684     
   20.000057270079981     
   394.42175688494029     
   415.52980344363198     
   20.000720309276417     
   20.000858752371350     
   20.000074713036327     
   20.000825561636216     
   719.21674258601149     
   20.001690109175506     
   20.001970814342581     
   20.002379452928274     
   20.000954865315048     
   303.28920878000559     
   20.001446601778071     
   20.001211884174982     
   409.56740251549422     
   20.002406988782734     
   20.001710069142856     
   20.000082931094202     
   20.002843610083158     
   20.002469666435712     
   20.001950164589779     
   20.004613927086325     
   20.002035416431916     
   20.008797281667313     
   20.010153856705763     
   20.022760655262257     
   20.016655370162002     
   20.014322388728964     
   20.019517772711321     
   20.030397054737485     
   20.073514840936042     
   20.035784635375968     
   20.030700117234474     
   20.055792593034329     
   20.041481068652054     
   20.171060132602232     
   20.085953440748018     
   20.074232648316059     
   20.131522425417341     
   20.099005109736378     
   20.091139886763273     
   20.048125626785559     
   20.120089824117468     
   20.097070686101826     
   20.074136586086457     
   20.068760840570395     
   20.382060644056278     
   20.198654869709582     
   20.172690599365655     
   20.298427393691213     
   20.227391204866315     
   20.114116804039824     
   398.03973379530794     
   20.824295102886943     
   20.442298838998930     
   20.386379406736385     
   20.649876575373852     
   20.501124543399825     
   20.260437001548496     
   20.580222935219485     
   20.465093183902720     
   20.340702325339819     
   20.441272995881040     
   21.714113874673739     
   20.947646764526827     
   20.833257705142703     
   21.367459075821262     
   21.069571009808786     
   20.572550443091774     
   20.364674753120440     
   23.442326902698746     
   21.958079744999690     
   21.732257463360131     
   22.776367685019224     
   22.197383488626976     
   21.211568283932031     
   22.345543210500640     
   21.930726400877820     
   21.459931702523875     
   21.847058760328320     
   26.683946669127629     
   23.907864730292996     
   23.477540232381806     
   25.452369392777175     
   24.355125044115219     
   22.474190159687065     
   247.52107439126786     
   283.63763175082926     
   257.98222076854910     
   21.544615427188340     
   28.345077835133324     
   140.71600652585224     
   300.02588055504373     
   153.85368768644847     
   139.72042331675075     
   156.58310240978773     
   32.568641266311836     
   279.10934638878501     
   249.17553882651833     
   299.67279559142253     
   27.543614038281458     
   26.750272103857281     
   79.547574293633375     
   243.07846345446632     
   132.69947248534922     
   74.791544968758600     
   157.47701052687501     
   24.882900338861056     
   120.35557867397750     
   243.61874427193226     
   29.344528878142974     
   30.367278682684937     
   333.54961308447668     
   209.64534109098940     
   188.83927984205494     
   134.53869479866094     
   46.399489989401282     
   113.41452039072188     
   38.912689054638690     
   37.296149626232094     
   87.623807870445020     
   47.706580833132783     
   338.98325135111810     
   34.096990353822953     
   32.686753150540433     
   257.01881837162136     
   38.648499181774035     
   246.99582788718277     
   90.463439272423386     
   163.41355034759786     
   46.024563444437980     
   181.89263929164187     
   181.40506028588550     
   178.85320224875875     
   240.23432632669955     
   35.465273181192842     
   162.66429437636293     
   105.29521084747319     
   104.38337965291444     
   304.37804721634529     
   100.10108656840399     
   337.59215034269727     
   67.739134509630091     
   76.160781246298612     
   87.228921835444069     
   220.60540087405673     
   351.35418400272363     
   52.054365219190871     
   191.94459451861576     
   274.96397744877436     
   20.003738231965020     
   79.771814652456257     
   85.553251798096852     
   320.81442344220960     
   20.008827037865448     
   20.004716393379145     
   68.844614625770589     
   37.257992858741623     
   91.755937872086903     
   141.85337915915125     
   444.88129638860926     
   323.16301141161864     
   237.66325612171488     
   269.84141370690139     
   150.42936863620295     
   98.603401099286600     
   66.639271372614758     
   47.188227629567820     
   35.521605468641056     
   28.568737520817216     
   24.638198378500139     
   22.418254858232171     
   21.227146758333326     
   20.599208494335539     
   20.282418336961037     
   20.126591978665040     
   20.056277677511108     
   20.023479060152059     
   20.009591074879886     
   20.007038942654738     
   20.005128116041845     
   20.006462870026073     
   20.002698643262317     
   20.003422189122880     
   20.001001687777208     
   20.000354114113456     
   20.000120039909625     
   20.000039207652463     
   20.004675602745277     
   20.000036966417500     
   20.000116681557660     
   20.000352932216440     
   20.001026580245171     
   20.002857558919111     
   20.005522444599421     
   20.007608232235885     
   20.006474552261032     
   20.010464137434891     
   20.008928665159264     
   20.026564921845548     
   20.064633008468341     
   20.151278019089656     
   20.340927521615029     
   20.739752635724571     
   21.546643549693997     
   23.121820846733332     
   26.091290606369970     
   31.508277022749489     
   41.102027585382402     
   57.681309622105481     
   85.774882442401605     
   98.806575781266474     
   91.557010801917130     
   114.37374320256818     
   132.40857868252715     
   208.71393638817059     
   331.89905757638888     
   528.60846486700734     
   98.694600428776837     
   212.04591602834702     
   223.18496851380871     
   156.56311967648449     
   20.003363931462921     
   114.04725417569470     
   288.58341171805642     
   66.235533991686751     
   122.14405827271958     
   51.168036507538417     
   20.003969478475152     
   57.858224911046079     
   105.56935826704513     
   261.00659478445294     
   69.558968988616030     
   355.25366944495738     
   47.661925261548170     
   76.168824061365896     
   164.81492914047763     
   120.95144161380178     
   61.687625212872547     
   116.06652309983687     
   52.303326076925927     
   54.326335437149147     
   48.477494693925372     
   66.836377580611298     
   58.764646955754451     
   134.77029110912713     
   287.94586065928240     
   176.30864690703089     
   122.14149469820281     
   53.559553306379016     
   38.108465533294137     
   65.450509348157652     
   115.95290951450539     
   78.680440063880269     
   60.548927589656643     
   74.747035299643883     
   42.787544774776961     
   100.54507835642131     
   45.705629398556276     
   46.481016693778237     
   39.121951595437601     
   43.351479681822930     
   41.851225378507166     
   152.69424476448765     
   46.543933962054034     
   154.72088081328587     
   35.318023970672954     
   41.249464588281015     
   98.853982510725132     
   37.870479656047827     
   27.928522597917631     
   35.398054298363988     
   100.86775278814567     
   91.045798230830954     
   104.88310740654455     
   34.507707814273218     
   29.789935557361467     
   189.15108619716395     
   28.400736709770662     
   220.52910379372358     
   32.746353209090586     
   31.980713536973134     
   24.153222162432151     
   28.347474388385276     
   30.373948113893096     
   211.81079180122416     
   27.900309892234162     
   29.706955483739542     
   28.233603900777428     
   28.444578499280997     
   24.431078712261634     
   27.835085863545110     
   25.126500555741430     
   26.848943405103064     
   26.353201383973921     
   25.534306348798051     
   22.084574428400099     
   24.299063901163429     
   25.116287688484867     
   24.431223113025826     
   24.090382756124473     
   22.259724194830344     
   22.608937869769836     
   23.553012074023677     
   23.279231827897121     
   22.835672722026452     
   21.029465955247346     
   22.170628762166135     
   22.608623870011112     
   22.243277854909326     
   22.061131631817904     
   21.110123618383373     
   21.301009471187967     
   21.780656888424904     
   21.634260367622979     
   21.407217045940818     
   20.485267918068519     
   21.059969651829839     
   21.287132803889243     
   21.102302879273310     
   21.006800111770442     
   20.532689956207928     
   20.620077508262433     
   20.863976878639058     