# vtk DataFile Version 2.0
 temperature
 ASCII
 DATASET UNSTRUCTURED_GRID
 POINTS         773  double
   0.0000000000000000        0.0000000000000000        0.0000000000000000     
   3.5000000000000000        0.0000000000000000        0.0000000000000000     
   3.5000000000000000        40.000000000000000        0.0000000000000000     
   0.0000000000000000        40.000000000000000        0.0000000000000000     
  0.43750000000000000        0.0000000000000000        0.0000000000000000     
  0.87500000000000000        0.0000000000000000        0.0000000000000000     
   1.3125000000000000        0.0000000000000000        0.0000000000000000     
   1.7500000000000000        0.0000000000000000        0.0000000000000000     
   2.1875000000000000        0.0000000000000000        0.0000000000000000     
   2.6250000000000000        0.0000000000000000        0.0000000000000000     
   3.0625000000000000        0.0000000000000000        0.0000000000000000     
   3.5000000000000000       0.50000000000000000        0.0000000000000000     
   3.5000000000000000        1.0000000000000000        0.0000000000000000     
   3.5000000000000000        1.5000000000000000        0.0000000000000000     
   3.5000000000000000        2.0000000000000000        0.0000000000000000     
   3.5000000000000000        2.5000000000000000        0.0000000000000000     
   3.5000000000000000        3.0000000000000000        0.0000000000000000     
   3.5000000000000000        3.5000000000000000        0.0000000000000000     
   3.5000000000000000        4.0000000000000000        0.0000000000000000     
   3.5000000000000000        4.5000000000000000        0.0000000000000000     
   3.5000000000000000        5.0000000000000000        0.0000000000000000     
   3.5000000000000000        5.5000000000000000        0.0000000000000000     
   3.5000000000000000        6.0000000000000000        0.0000000000000000     
   3.5000000000000000        6.5000000000000000        0.0000000000000000     
   3.5000000000000000        7.0000000000000000        0.0000000000000000     
   3.5000000000000000        7.5000000000000000        0.0000000000000000     
   3.5000000000000000        8.0000000000000000        0.0000000000000000     
   3.5000000000000000        8.5000000000000000        0.0000000000000000     
   3.5000000000000000        9.0000000000000000        0.0000000000000000     
   3.5000000000000000        9.5000000000000000        0.0000000000000000     
   3.5000000000000000        10.000000000000000        0.0000000000000000     
   3.5000000000000000        10.500000000000000        0.0000000000000000     
   3.5000000000000000        11.000000000000000        0.0000000000000000     
   3.5000000000000000        11.500000000000000        0.0000000000000000     
   3.5000000000000000        12.000000000000000        0.0000000000000000     
   3.5000000000000000        12.500000000000000        0.0000000000000000     
   3.5000000000000000        13.000000000000000        0.0000000000000000     
   3.5000000000000000        13.500000000000000        0.0000000000000000     
   3.5000000000000000        14.000000000000000        0.0000000000000000     
   3.5000000000000000        14.500000000000000        0.0000000000000000     
   3.5000000000000000        15.000000000000000        0.0000000000000000     
   3.5000000000000000        15.500000000000000        0.0000000000000000     
   3.5000000000000000        16.000000000000000        0.0000000000000000     
   3.5000000000000000        16.500000000000000        0.0000000000000000     
   3.5000000000000000        17.000000000000000        0.0000000000000000     
   3.5000000000000000        17.500000000000000        0.0000000000000000     
   3.5000000000000000        18.000000000000000        0.0000000000000000     
   3.5000000000000000        18.500000000000000        0.0000000000000000     
   3.5000000000000000        19.000000000000000        0.0000000000000000     
   3.5000000000000000        19.500000000000000        0.0000000000000000     
   3.5000000000000000        20.000000000000000        0.0000000000000000     
   3.5000000000000000        20.500000000000000        0.0000000000000000     
   3.5000000000000000        21.000000000000000        0.0000000000000000     
   3.5000000000000000        21.500000000000000        0.0000000000000000     
   3.5000000000000000        22.000000000000000        0.0000000000000000     
   3.5000000000000000        22.500000000000000        0.0000000000000000     
   3.5000000000000000        23.000000000000000        0.0000000000000000     
   3.5000000000000000        23.500000000000000        0.0000000000000000     
   3.5000000000000000        24.000000000000000        0.0000000000000000     
   3.5000000000000000        24.500000000000000        0.0000000000000000     
   3.5000000000000000        25.000000000000000        0.0000000000000000     
   3.5000000000000000        25.500000000000000        0.0000000000000000     
   3.5000000000000000        26.000000000000000        0.0000000000000000     
   3.5000000000000000        26.500000000000000        0.0000000000000000     
   3.5000000000000000        27.000000000000000        0.0000000000000000     
   3.5000000000000000        27.500000000000000        0.0000000000000000     
   3.5000000000000000        28.000000000000000        0.0000000000000000     
   3.5000000000000000        28.500000000000000        0.0000000000000000     
   3.5000000000000000        29.000000000000000        0.0000000000000000     
   3.5000000000000000        29.500000000000000        0.0000000000000000     
   3.5000000000000000        30.000000000000000        0.0000000000000000     
   3.5000000000000000        30.500000000000000        0.0000000000000000     
   3.5000000000000000        31.000000000000000        0.0000000000000000     
   3.5000000000000000        31.500000000000000        0.0000000000000000     
   3.5000000000000000        32.000000000000000        0.0000000000000000     
   3.5000000000000000        32.500000000000000        0.0000000000000000     
   3.5000000000000000        33.000000000000000        0.0000000000000000     
   3.5000000000000000        33.500000000000000        0.0000000000000000     
   3.5000000000000000        34.000000000000000        0.0000000000000000     
   3.5000000000000000        34.500000000000000        0.0000000000000000     
   3.5000000000000000        35.000000000000000        0.0000000000000000     
   3.5000000000000000        35.500000000000000        0.0000000000000000     
   3.5000000000000000        36.000000000000000        0.0000000000000000     
   3.5000000000000000        36.500000000000000        0.0000000000000000     
   3.5000000000000000        37.000000000000000        0.0000000000000000     
   3.5000000000000000        37.500000000000000        0.0000000000000000     
   3.5000000000000000        38.000000000000000        0.0000000000000000     
   3.5000000000000000        38.500000000000000        0.0000000000000000     
   3.5000000000000000        39.000000000000000        0.0000000000000000     
   3.5000000000000000        39.500000000000000        0.0000000000000000     
   3.0625000000000000        40.000000000000000        0.0000000000000000     
   2.6250000000000000        40.000000000000000        0.0000000000000000     
   2.1875000000000000        40.000000000000000        0.0000000000000000     
   1.7500000000000000        40.000000000000000        0.0000000000000000     
   1.3125000000000000        40.000000000000000        0.0000000000000000     
  0.87500000000000000        40.000000000000000        0.0000000000000000     
  0.43750000000000000        40.000000000000000        0.0000000000000000     
   0.0000000000000000        39.500000000000000        0.0000000000000000     
   0.0000000000000000        39.000000000000000        0.0000000000000000     
   0.0000000000000000        38.500000000000000        0.0000000000000000     
   0.0000000000000000        38.000000000000000        0.0000000000000000     
   0.0000000000000000        37.500000000000000        0.0000000000000000     
   0.0000000000000000        37.000000000000000        0.0000000000000000     
   0.0000000000000000        36.500000000000000        0.0000000000000000     
   0.0000000000000000        36.000000000000000        0.0000000000000000     
   0.0000000000000000        35.500000000000000        0.0000000000000000     
   0.0000000000000000        35.000000000000000        0.0000000000000000     
   0.0000000000000000        34.500000000000000        0.0000000000000000     
   0.0000000000000000        34.000000000000000        0.0000000000000000     
   0.0000000000000000        33.500000000000000        0.0000000000000000     
   0.0000000000000000        33.000000000000000        0.0000000000000000     
   0.0000000000000000        32.500000000000000        0.0000000000000000     
   0.0000000000000000        32.000000000000000        0.0000000000000000     
   0.0000000000000000        31.500000000000000        0.0000000000000000     
   0.0000000000000000        31.000000000000000        0.0000000000000000     
   0.0000000000000000        30.500000000000000        0.0000000000000000     
   0.0000000000000000        30.000000000000000        0.0000000000000000     
   0.0000000000000000        29.500000000000000        0.0000000000000000     
   0.0000000000000000        29.000000000000000        0.0000000000000000     
   0.0000000000000000        28.500000000000000        0.0000000000000000     
   0.0000000000000000        28.000000000000000        0.0000000000000000     
   0.0000000000000000        27.500000000000000        0.0000000000000000     
   0.0000000000000000        27.000000000000000        0.0000000000000000     
   0.0000000000000000        26.500000000000000        0.0000000000000000     
   0.0000000000000000        26.000000000000000        0.0000000000000000     
[...]
 CELL_DATA        1368
 SCALARS T double
 LOOKUP_TABLE default
   20.934125265034442     
   25.493088073488853     
   1676.9220792553413     
   45.213119222548762     
   20.000001206614723     
   21.821174882504732     
   1279.9575835762457     
   21.684109163048422     
   20.126424736462965     
   21.407385910224374     
   20.196256798314408     
   39.133430760363844     
   21.346538762410823     
   47.538669731119278     
   40.436893604647430     
   1212.9104385856242     
   1678.0865366805133     
   20.401434496635002     
   20.365018242160719     
   22.779961789485558     
   20.303095002266332     
   20.021440118217118     
   1737.5908267247189     
   20.035016138695230     
   20.799449311036327     
   25.410061130323140     
   20.280393849711121     
   22.122142863343157     
   21.067141358279436     
   20.146824055955694     
   22.730242788716470     
   20.000002128388623     
   24.810668114088244     
   25.865944530421089     
   25.733012262336270     
   20.000001806669886     
   20.627343255367446     
   20.075249264476358     
   20.227959337394587     
   20.067633519136304     
   20.049857467896842     
   21.310941505796169     
   20.055063131204736     
   46.354939135778260     
   20.473882007088061     
   442.74835197602886     
   434.91556480012849     
   21.141512397687137     
   21.465052196979762     
   698.48907635427315     
   703.32582509371730     
   20.164471645601395     
   20.622494289864889     
   20.000001697520339     
   1709.1000372257188     
   20.000001481851410     
   20.000003968258945     
   20.020070229572028     
   20.011395861960210     
   20.025623805238695     
   20.000005066179131     
   44.690392793156988     
   20.040712062426831     
   20.000009723830374     
   22.408544568244697     
   23.002436591984850     
   20.120192324166680     
   22.874054547091760     
   20.234507303552650     
   20.308398804117370     
   20.000003304162579     
   1677.4940111222757     
   20.000006133998511     
   20.277989232553004     
   20.089352039047238     
   20.122067585977156     
   20.000014087462276     
   20.000033743838490     
   20.000002711286101     
   418.79208627172585     
   20.028856478736646     
   20.010363650265191     
   257.65556121553414     
   20.006216285640356     
   161.27350007516523     
   20.535117127651301     
   20.688769098117518     
   414.85917532428056     
   20.016701616546150     
   862.29024638431576     
   20.040871964482555     
   20.055692246734136     
   66.906201846279714     
   20.000111964947262     
   806.11298762396518     
   20.002713709303947     
   45.999070463842472     
   20.000048046489390     
   20.003192486631505     
   20.000017944894164     
   255.91067077560064     
   20.000011765941831     
   219.74291529066153     
   223.15213020737181     
   20.049734221974951     
   20.014072491516966     
   20.000002636652553     
   20.115857027137846     
   20.000002219585102     
   20.000021271132987     
   28.927052420109327     
   528.15483726781520     
   28.022376859089619     
   20.001555624921544     
   20.000007867178212     
   20.000001210240260     
   139.44310458891226     
   24.067832026315763     
   141.36122170335148     
   20.000713544789221     
   20.000011854593076     
   20.001395625067047     
   20.010390728320814     
   160.21552862232778     
   21.994990255489846     
   316.35491093492635     
   20.101497987513763     
   20.132672856765836     
   20.007696938898789     
   20.675516267397004     
   20.000003326777676     
   20.001916015136999     
   538.83219710688695     
   20.937691625746488     
   20.000040477636102     
   20.000157696417915     
   20.422081093924305     
   90.615666369839118     
   1321.7057714544017     
   91.879838178633079     
   1009.5457838890663     
   485.35101777936632     
   197.49311531524972     
   20.002202679612434     
   20.005497321303192     
   20.000544068763716     
   508.25580038407583     
   20.003913679112035     
   20.000027499984459     
   20.000040847596697     
   20.000698030180835     
   320.47676016302199     
   20.005343944888835     
   60.771638261915001     
   61.385355947140106     
   20.000060661107010     
   20.000471632326484     
   124.19307163412280     
   20.008198440541836     
   20.000132801557520     
   20.000071635276033     
   20.000007678689101     
   40.833050681278188     
   66.482288694581300     
   20.019439058996394     
   22.304378206714627     
   20.000134397997190     
   20.000001118947843     
   249.22510362064648     
   199.97703984711089     
   20.001116099795379     
   20.000310698369955     
   20.000091450357711     
   45.776731234906464     
   53.730302084980437     
   20.000367221558918     
   1014.4731427578969     
   20.522882434387487     
   125.36654648002413     
   20.000197432396781     
   167.80182539103802     
   159.27665325160913     
   38.405130441259580     
   20.000230343725161     
   35.379472770292253     
   20.000683945814114     
   20.008493880721346     
   20.011821544755922     
   60.404144622174776     
   20.000002543696702     
   264.70124312238318     
   20.099742566996007     
   26.658418903723046     
   26.650334141719433     
   30.424578524160140     
   20.000001334245621     
   583.36198410506586     
   20.000759266360660     
   20.000002259888635     
   20.000289940945319     
   27.853725387060770     
   20.000422897550727     
   107.81199644314968     
   20.004374659033573     
   20.006108055435519     
   20.001466552265573     
   102.51219953491263     
   24.200360798441029     
   20.000336146848710     
   20.000002675372123     
   20.000490167654696     
   20.000004690846705     
   25.345026446954645     
   20.000001168739335     
   20.001702801353105     
   20.000212848880061     
   20.002950338301282     
   20.004437039038272     
   20.131294962780345     
   20.000610854345268     
   23.980244827721332     
   20.000003065068370     
   20.007469519237496     
   58.139581100979470     
   20.003106109498695     
   54.266543556308392     
   20.003429230382459     
   20.000145397124133     
   20.000001771118406     
   20.000172141998895     
   20.000939447334027     
   20.000003892823123     
   21.951232033487265     
   20.000026831951114     
   22.657934201880781     
   20.000117636400653     
   20.008173714236861     
   20.000001961720020     
   20.916746984301223     
   20.009432570176035     
   33.631107796773591     
   38.658715248274142     
   331.36241360317712     
   21.007696298572206     
   55.050751694892554     
   71.113901827768743     
   1435.5216197823513     
   67.931051566479837     
   20.412233651842456     
   20.000098780270118     
   20.000044907641136     
   20.021723269745355     
   20.001020307942980     
   21.271711395247166     
   1517.3704963392568     
   20.000035888515058     
   20.000079764639160     
   20.000250472126034     
   20.024871374204519     
   20.001185844557263     
   20.000004201297159     
   744.17492906611130     
   574.50291810992314     
   20.055256936701490     
   20.011969720998174     
   20.002798745387032     
   20.584440304230306     
   20.000004507598661     
   20.062824542639749     
   1460.8697910897158     
   30.703399048497904     
   20.208856988652709     
   20.000823086073130     
   20.000972661211371     
   20.000675896635265     
   20.000004470135153     
   20.134720825401576     
   20.000004062471991     
   1383.9974382705225     
   1189.3112725916740     
   20.000000894613184     
   1254.0427029812281     
   20.000004790200276     
   20.152103336955506     
   1368.5768146589517     
   20.010688919423103     
   31.836545727221836     
   869.74880040800474     
   1391.4929389162044     
   20.000014300833726     
   25.511727341439187     
   20.000001794833700     
   20.000066958037337     
   20.000756557509547     
   20.001093832877654     
   20.000030033224785     
   20.000002483778164     
   20.000015790209883     
   20.000002045351309     
   923.00152747756749     
   22.743397507513681     
   20.000053534404913     
   661.27860038860638     
   20.000001793497951     
   20.000023815150662     
   21.313962025584992     
   20.604165183547874     
   20.000001159622194     
   20.000001640393723     
   1178.6691540874901     
   20.000003138538670     
   1290.8444205005462     
   1072.4061982431683     
   20.000977673700053     
   20.000783347099961     
   1480.5151223631542     
   31.261247403319700     
   335.59433716846814     
   20.036640419844154     
   20.000002409081677     
   20.000001347095878     
   20.000005104513040     
   782.18604761475456     
   20.000377148010624     
   20.000003395895916     
   20.000089777255592     
   20.000327274501714     
   20.005848382940325     
   1320.3342514105509     
   764.66427813815051     
   20.000002057619930     
   20.000004175943705     
   51.265891499273344     
   1202.2548413917368     
   20.000361566908076     
   20.000006846141805     
   1214.1861135462332     
   1291.4135890667178     
   20.006711444184933     
   20.002088100457598     
   1009.3470774345915     
   20.000003552685250     
   20.000014635527862     
   20.000008764971007     
   20.000009655265735     
   914.37927424776717     
   20.002413992950675     
   20.000013246176227     
   20.000016718533395     
   30.992028633339487     
   28.056075738948234     
   20.000007289977503     
   20.000002742784421     
   20.008635968713879     
   20.000006376023201     
   1142.8809795002442     
   20.000011011481728     
   1040.5213063019005     
   20.000006232784791     
   862.14173199995116     
   20.000002671740955     
   977.00412921502448     
   780.50836682752231     
   1034.0280777990831     
   1209.1543067269358     
   1038.3176563361942     
   20.000005925772069     
   20.000002942867955     
   20.000004812394810     
   873.85428278038478     
   842.05113248348187     
   764.52824104831814     
   736.86299708768274     
   1120.8678364314285     
   665.32163656147566     
   20.000326783673913     
   20.000006376729388     
   20.000021599025764     
   20.000020094188979     
   1233.4521646293344     
   891.30243728435062     
   894.57435341926714     
   968.30296760405304     
   631.50287621704683     
   723.10519668984170     
   20.000022434043057     
   20.000018000573608     
   20.000055893869057     
   564.78230720217789     
   833.77828519337118     
   562.54704923018858     
   20.000025101818167     
   20.000081244122931     
   20.000106656159222     
   631.01046408074922     
   473.06674892480635     
   767.32645807540064     
   20.000048886075863     
   614.75341239813315     
   653.04285472745721     
   20.000021937706304     
   20.000072024471926     
   662.65810288763316     
   20.000156338673406     
   20.000072033141286     
   539.77772587740833     
   20.000119614572931     
   20.000075525682604     
   20.000061123462554     
   20.000178871888401     
   566.52060982165915     
   459.84552730789545     
   482.94726351048672     
   20.000024962229340     
   391.13717331847113     
   412.41156832975992     
   20.000355561645247     
   20.000429106141603     
   20.000032984201759     
   20.000416693645136     
   716.12513167266377     
   20.000885004859391     
   20.001043491336603     
   20.001275149131683     
   20.000487833990942     
   301.06745986221574     
   20.000748769301978     
   20.000619935177006     
   406.15621325079570     
   20.001289817634579     
   20.000895427526242     
   20.000037082064456     
   20.001594022047843     
   20.001384172191372     
   20.001081415788530     
   20.002585149274594     
   20.001078199038208     
   20.005145872796042     
   20.006000039936513     
   20.014161327061402     
   20.010153242278474     
   20.008643127254427     
   20.012019885026181     
   20.019287280077528     
   20.049366887569452     
   20.022924097463619     
   20.019476937464972     
   20.036784472410947     
   20.026833542804418     
   20.121120232868407     
   20.058238177755317     
   20.049842039368343     
   20.091546884139216     
   20.067696683074338     
   20.064522843008248     
   20.031424242877943     
   20.086498456784007     
   20.069342836879766     
   20.052058572032603     
   20.047828028611708     
   20.284116509887745     
   20.141832151924682     
   20.122257525801437     
   20.218476632098419     
   20.163735255127047     
   20.078713881630573     
   394.40407296676750     
   20.641403840682891     
   20.331501355923123     
   20.287315247617627     
   20.498383605319599     
   20.378464966241843     
   20.189056466768580     
   20.458423458605324     
   20.364633636008350     
   20.261140406537809     
   20.343337898110352     
   21.390187061936153     
   20.742689378230462     
   20.648343178974098     
   21.094452908783591     
   20.844221208656545     
   20.435746847611288     
   20.281844824661032     
   22.898389304855296     
   21.598403056440610     
   21.404821072605657     
   22.309903591324705     
   21.805368238457657     
   20.962922800195329     
   21.998970004809827     
   21.635725705340175     
   21.213987876567629     
   21.555121695401684     
   25.819315120368742     
   23.309565239509659     
   22.927848221552324     
   24.697022330846707     
   23.709523396052774     
   22.045507457566320     
   244.34075590960444     
   279.94422144980888     
   254.94529476537625     
   21.293349775725567     
   27.339376408188471     
   137.77891918875318     
   296.43278025380818     
   150.35651670630580     
   136.35516196148265     
   153.49101870226895     
   31.270109206497285     
   276.36877737812381     
   245.37924395990041     
   296.68087547934675     
   26.601707486852778     
   25.876687061585521     
   77.101740446704753     
   239.38316239324021     
   129.32522749847715     
   72.549185356044589     
   153.88160336779973     
   24.182599484160097     
   117.13060914535477     
   240.98237566515510     
   28.260986748178517     
   29.210723421188160     
   329.90657295677141     
   205.97841098016903     
   185.28493360069439     
   131.32135144402744     
   44.630055188478174     
   110.80278068728816     
   37.251770323616057     
   35.772085167663526     
   85.005086827315935     
   45.932735251401525     
   335.91574876202634     
   32.696789913844299     
   31.375093011340745     
   253.39630345580437     
   37.074020660109461     
   243.53060770823339     
   87.558700024943576     
   160.40947464510077     
   44.363661155877644     
   178.48759164334703     
   178.26629242126756     
   175.25259015390981     
   237.40658867265270     
   33.987381854343205     
   159.18600964752525     
   101.99728606942548     
   101.30556279144193     
   301.05077550064271     
   97.683523120134183     
   334.21023395040805     
   65.662677106968346     
   73.707367721046353     
   84.459385758133664     
   216.99238721440199     
   347.81841932255293     
   50.012716520831177     
   188.60182391840411     
   273.21043159329781     
   20.002164886119594     
   77.160472600473796     
   82.683523437559259     
   318.95435608199710     
   20.005382537984513     
   20.002759546001084     
   66.319397205655775     
   35.680013621006815     
   88.975687900464791     
   138.66617796931078     
   443.51790582514946     
   321.50978081944061     
   235.80353082856217     
   267.87415589068110     
   148.47319211353209     
   96.712797004418107     
   64.959596500788464     
   45.797590399804335     
   34.441317381877546     
   27.787200420254639     
   24.101051300560101     
   22.072292986277603     
   21.014934736681191     
   20.476402513068223     
   20.215056085598626     
   20.091928972519501     
   20.038844927760490     
   20.015341244575371     
   20.005909511299805     
   20.004249954910520     
   20.003033440017330     
   20.003861718911885     
   20.001529697190303     
   20.001960040251589     
   20.000530933490516     
   20.000174935292701     
   20.000055065246144     
   20.000016647036855     
   20.002619899169780     
   20.000014865512867     
   20.000050822382352     
   20.000165906058822     
   20.000519141674548     
   20.001548748781342     
   20.003128437755457     
   20.004403153333854     
   20.003707790130985     
   20.006185419413303     
   20.005223680377348     
   20.016692418340863     
   20.043007217165695     
   20.106201249038421     
   20.251565872018464     
   20.571521863361916     
   21.246215525849703     
   22.613099981868498     
   25.275581756826512     
   30.271906363617170     
   39.333486615297311     
   55.297284193217195     
   82.754556678088903     
   95.586339712566996     
   88.448784937568291     
   110.96475527023883     
   128.83242000090635     
   204.78580417333168     
   327.94245145652678     
   525.02829161060322     
   95.639686930098222     
   208.59329014514395     
   219.81595299920164     
   153.23637701817975     
   20.001843739431905     
   110.82340989362140     
   285.13981182151520     
   63.842202402042666     
   119.07407291059444     
   49.081967915740549     
   20.002199474584963     
   55.570870590414742     
   102.63862154481137     
   257.63684667734805     
   67.131423619202096     
   352.00475690354898     
   45.717950933261086     
   73.571871451887716     
   161.53394739132386     
   118.11496516726551     
   59.427931538369876     
   112.98102687787797     
   50.350287623644199     
   52.249083443963428     
   46.575518736781902     
   64.282280445678850     
   56.534479130267023     
   131.76671154196052     
   284.82082221236016     
   173.50910607395573     
   118.66285537507760     
   51.422495956561669     
   36.648434759352902     
   62.970121802895264     
   113.07299880908134     
   75.960532344642786     
   58.216068721695663     
   72.067656372295502     
   41.029574324403320     
   97.609268311113766     
   43.813289458839641     
   44.532119134371598     
   37.576662106597425     
   41.631921835494488     
   40.167347611961056     
   149.90274159336695     
   44.679917742285205     
   152.08135527294456     
   33.909516326397174     
   39.539632726176933     
   96.318510693418929     
   36.363275056046660     
   27.040499834262420     
   34.032477747934060     
   98.101880696644770     
   88.456984457288954     
   102.16447565031753     
   33.174673730280084     
   28.772685692855127     
   186.10640176443485     
   27.490191281164449     
   217.46572330343614     
   31.522863458500517     
   30.787351906952711     
   23.576014206804714     
   27.480458888146963     
   29.293758834245235     
   208.63543951358881     
   27.048883080261319     
   28.659090791834373     
   27.274793330908814     
   27.495896893026767     
   23.834071512081735     
   26.922409796537320     
   24.459760730219603     
   26.020555126760367     
   25.557504583733060     
   24.815792482800926     
   21.733366837247800     
   23.680536216273421     
   24.428120125626180     
   23.813969215377941     
   23.501809610453932     
   21.890332312013197     
   22.194824889389910     
   23.024396703186518     
   22.775860886662382     
   22.386103711696279     
   20.823366757078322     
   21.793426791285995     
   22.181833256690073     
   21.864503774373844     
   21.702893762272431     
   20.893396820047009     
   21.054105110528763     
   21.461804910466707     
   21.333266316748453     
   21.140510014770278     
   20.371861149896546     
   20.841833051668946     
   21.036176955385617     
   20.881298751491901     
   20.799588335068993     
   20.411312261622232     
   20.481996204207981     
   20.681337621742571     