# vtk DataFile Version 2.0
 temperature
 ASCII
 DATASET UNSTRUCTURED_GRID
 POINTS         773  double
   0.0000000000000000        0.0000000000000000        0.0000000000000000     
   3.5000000000000000        0.0000000000000000        0.0000000000000000     
   3.5000000000000000        40.000000000000000        0.0000000000000000     
   0.0000000000000000        40.000000000000000        0.0000000000000000     
  0.43750000000000000        0.0000000000000000        0.0000000000000000     
  0.87500000000000000        0.0000000000000000        0.0000000000000000     
   1.3125000000000000        0.0000000000000000        0.0000000000000000     
   1.7500000000000000        0.0000000000000000        0.0000000000000000     
   2.1875000000000000        0.0000000000000000        0.0000000000000000     
   2.6250000000000000        0.0000000000000000        0.0000000000000000     
   3.0625000000000000        0.0000000000000000        0.0000000000000000     
   3.5000000000000000       0.50000000000000000        0.0000000000000000     
   3.5000000000000000        1.0000000000000000        0.0000000000000000     
   3.5000000000000000        1.5000000000000000        0.0000000000000000     
   3.5000000000000000        2.0000000000000000        0.0000000000000000     
   3.5000000000000000        2.5000000000000000        0.0000000000000000     
   3.5000000000000000        3.0000000000000000        0.0000000000000000     
   3.5000000000000000        3.5000000000000000        0.0000000000000000     
   3.5000000000000000        4.0000000000000000        0.0000000000000000     
   3.5000000000000000        4.5000000000000000        0.0000000000000000     
   3.5000000000000000        5.0000000000000000        0.0000000000000000     
   3.5000000000000000        5.5000000000000000        0.0000000000000000     
   3.5000000000000000        6.0000000000000000        0.0000000000000000     
   3.5000000000000000        6.5000000000000000        0.0000000000000000     
   3.5000000000000000        7.0000000000000000        0.0000000000000000     
   3.5000000000000000        7.5000000000000000        0.0000000000000000     
   3.5000000000000000        8.0000000000000000        0.0000000000000000     
   3.5000000000000000        8.5000000000000000        0.0000000000000000     
   3.5000000000000000        9.0000000000000000        0.0000000000000000     
   3.5000000000000000        9.5000000000000000        0.0000000000000000     
   3.5000000000000000        10.000000000000000        0.0000000000000000     
   3.5000000000000000        10.500000000000000        0.0000000000000000     
   3.5000000000000000        11.000000000000000        0.0000000000000000     
   3.5000000000000000        11.500000000000000        0.0000000000000000     
   3.5000000000000000        12.000000000000000        0.0000000000000000     
   3.5000000000000000        12.500000000000000        0.0000000000000000     
   3.5000000000000000        13.000000000000000        0.0000000000000000     
   3.5000000000000000        13.500000000000000        0.0000000000000000     
   3.5000000000000000        14.000000000000000        0.0000000000000000     
   3.5000000000000000        14.500000000000000        0.0000000000000000     
   3.5000000000000000        15.000000000000000        0.0000000000000000     
   3.5000000000000000        15.500000000000000        0.0000000000000000     
   3.5000000000000000        16.000000000000000        0.0000000000000000     
   3.5000000000000000        16.500000000000000        0.0000000000000000     
   3.5000000000000000        17.000000000000000        0.0000000000000000     
   3.5000000000000000        17.500000000000000        0.0000000000000000     
   3.5000000000000000        18.000000000000000        0.0000000000000000     
   3.5000000000000000        18.500000000000000        0.0000000000000000     
   3.5000000000000000        19.000000000000000        0.0000000000000000     
   3.5000000000000000        19.500000000000000        0.0000000000000000     
   3.5000000000000000        20.000000000000000        0.0000000000000000     
   3.5000000000000000        20.500000000000000        0.0000000000000000     
   3.5000000000000000        21.000000000000000        0.0000000000000000     
   3.5000000000000000        21.500000000000000        0.0000000000000000     
   3.5000000000000000        22.000000000000000        0.0000000000000000     
   3.5000000000000000        22.500000000000000        0.0000000000000000     
   3.5000000000000000        23.000000000000000        0.0000000000000000     
   3.5000000000000000        23.500000000000000        0.0000000000000000     
   3.5000000000000000        24.000000000000000        0.0000000000000000     
   3.5000000000000000        24.500000000000000        0.0000000000000000     
   3.5000000000000000        25.000000000000000        0.0000000000000000     
   3.5000000000000000        25.500000000000000        0.0000000000000000     
   3.5000000000000000        26.000000000000000        0.0000000000000000     
   3.5000000000000000        26.500000000000000        0.0000000000000000     
   3.5000000000000000        27.000000000000000        0.0000000000000000     
   3.5000000000000000        27.500000000000000        0.0000000000000000     
   3.5000000000000000        28.000000000000000        0.0000000000000000     
   3.5000000000000000        28.500000000000000        0.0000000000000000     
   3.5000000000000000        29.000000000000000        0.0000000000000000     
   3.5000000000000000        29.500000000000000        0.0000000000000000     
   3.5000000000000000        30.000000000000000        0.0000000000000000     
   3.5000000000000000        30.500000000000000        0.0000000000000000     
   3.5000000000000000        31.000000000000000        0.0000000000000000     
   3.5000000000000000        31.500000000000000        0.0000000000000000     
   3.5000000000000000        32.000000000000000        0.0000000000000000     
   3.5000000000000000        32.500000000000000        0.0000000000000000     
   3.5000000000000000        33.000000000000000        0.0000000000000000     
   3.5000000000000000        33.500000000000000        0.0000000000000000     
   3.5000000000000000        34.000000000000000        0.0000000000000000     
   3.5000000000000000        34.500000000000000        0.0000000000000000     
   3.5000000000000000        35.000000000000000        0.0000000000000000     
   3.5000000000000000        35.500000000000000        0.0000000000000000     
   3.5000000000000000        36.000000000000000        0.0000000000000000     
   3.5000000000000000        36.500000000000000        0.0000000000000000     
   3.5000000000000000        37.000000000000000        0.0000000000000000     
   3.5000000000000000        37.500000000000000        0.0000000000000000     
   3.5000000000000000        38.000000000000000        0.0000000000000000     
   3.5000000000000000        38.500000000000000        0.0000000000000000     
   3.5000000000000000        39.000000000000000        0.0000000000000000     
   3.5000000000000000        39.500000000000000        0.0000000000000000     
   3.0625000000000000        40.000000000000000        0.0000000000000000     
   2.6250000000000000        40.000000000000000        0.0000000000000000     
   2.1875000000000000        40.000000000000000        0.0000000000000000     
   1.7500000000000000        40.000000000000000        0.0000000000000000     
   1.3125000000000000        40.000000000000000        0.0000000000000000     
  0.87500000000000000        40.000000000000000        0.0000000000000000     
  0.43750000000000000        40.000000000000000        0.0000000000000000     
   0.0000000000000000        39.500000000000000        0.0000000000000000     
   0.0000000000000000        39.000000000000000        0.0000000000000000     
   0.0000000000000000        38.500000000000000        0.0000000000000000     
   0.0000000000000000        38.000000000000000        0.0000000000000000     
   0.0000000000000000        37.500000000000000        0.0000000000000000     
   0.0000000000000000        37.000000000000000        0.0000000000000000     
   0.0000000000000000        36.500000000000000        0.0000000000000000     
   0.0000000000000000        36.000000000000000        0.0000000000000000     
   0.0000000000000000        35.500000000000000        0.0000000000000000     
   0.0000000000000000        35.000000000000000        0.0000000000000000     
   0.0000000000000000        34.500000000000000        0.0000000000000000     
   0.0000000000000000        34.000000000000000        0.0000000000000000     
   0.0000000000000000        33.500000000000000        0.0000000000000000     
   0.0000000000000000        33.000000000000000        0.0000000000000000     
   0.0000000000000000        32.500000000000000        0.0000000000000000     
   0.0000000000000000        32.000000000000000        0.0000000000000000     
   0.0000000000000000        31.500000000000000        0.0000000000000000     
   0.0000000000000000        31.000000000000000        0.0000000000000000     
   0.0000000000000000        30.500000000000000        0.0000000000000000     
   0.0000000000000000        30.000000000000000        0.0000000000000000     
   0.0000000000000000        29.500000000000000        0.0000000000000000     
   0.0000000000000000        29.000000000000000        0.0000000000000000     
   0.0000000000000000        28.500000000000000        0.0000000000000000     
   0.0000000000000000        28.000000000000000        0.0000000000000000     
   0.0000000000000000        27.500000000000000        0.0000000000000000     
   0.0000000000000000        27.000000000000000        0.0000000000000000     
   0.0000000000000000        26.500000000000000        0.0000000000000000     
   0.0000000000000000        26.000000000000000        0.0000000000000000     
[...]
 CELL_DATA        1368
 SCALARS T double
 LOOKUP_TABLE default
   21.472068725550969     
   27.363703289444373     
   1678.3845491646860     
   48.571016588437189     
   20.000014817802288     
   22.697339984780729     
   1281.2433316445383     
   22.532198809506607     
   20.255242805183613     
   22.146760698270242     
   20.376269592775341     
   42.494045263464059     
   22.116709331401154     
   51.230335917185315     
   43.868987775556334     
   1214.2261036947220     
   1679.5842806741471     
   20.714944735123662     
   20.662779021181940     
   24.015335356769775     
   20.559780795949429     
   20.055240461705878     
   1738.7412681754311     
   20.084919397006985     
   21.272948866974470     
   27.154779609662764     
   20.537219894002131     
   23.105002370874974     
   21.681513328795912     
   20.292591964526597     
   23.884378310985401     
   20.000024444466007     
   26.519161310672501     
   27.786884825557422     
   27.519031258959082     
   20.000021199857997     
   21.083470342097854     
   20.167400617964642     
   20.436661953770717     
   20.153846417917286     
   20.120859236534809     
   22.030893169715085     
   20.127829572401307     
   50.256245594593175     
   20.831407441944606     
   450.81010057059478     
   442.85895906440999     
   21.822468798073263     
   22.269106337142734     
   701.32224812364609     
   706.45594277293469     
   20.319858686254907     
   21.055613456811251     
   20.000020000880628     
   1710.0702008364210     
   20.000017728156639     
   20.000041454906746     
   20.054142658248342     
   20.032107047441677     
   20.064920414005247     
   20.000051031506928     
   48.311498841360169     
   20.098644346711023     
   20.000088735732817     
   23.522064608753698     
   24.284328848174017     
   20.257869963218770     
   24.056134356910000     
   20.457675795985917     
   20.580495321831965     
   20.000035552043386     
   1678.6387310282985     
   20.000059883067532     
   20.522968215603832     
   20.195390645180670     
   20.256057526217713     
   20.000120804177211     
   20.000253817886346     
   20.000030139952951     
   427.14900039102014     
   20.071194837137320     
   20.029893629414779     
   266.48487896192114     
   20.019716871742364     
   169.74603269122639     
   20.938578293492771     
   21.170580795681069     
   423.16702979555129     
   20.045935715660232     
   864.76133529234244     
   20.101285311746800     
   20.132118573442654     
   73.142700688573342     
   20.000700082265972     
   808.54127597217337     
   20.010009780507261     
   50.855346168889383     
   20.000340728976632     
   20.011163082671011     
   20.000148449944039     
   264.67374766530850     
   20.000103920825261     
   224.81135484109575     
   228.53925183197637     
   20.118117337965032     
   20.038828544883231     
   20.000029303629724     
   20.238123900719494     
   20.000025388599543     
   20.000171122888297     
   31.192666585498728     
   535.19560454869850     
   30.618868760963881     
   20.006196474285343     
   20.000074158939437     
   20.000014820327749     
   144.60924690382504     
   25.792838506826648     
   146.80252045305096     
   20.003351140727077     
   20.000104824786170     
   20.005560087319434     
   20.031506614435429     
   168.62244930855809     
   23.084586990862419     
   324.80208783325412     
   20.221745459895814     
   20.279533425480125     
   20.023856430066282     
   21.129820698880408     
   20.000035837338114     
   20.007444491600058     
   546.04655684735121     
   21.590338862120632     
   20.000295190709654     
   20.000931602051040     
   20.793199463014719     
   95.438074015120094     
   1323.1970460560333     
   96.955666715697319     
   1011.3529154258925     
   489.22497562838652     
   205.95434039777760     
   20.008326585834606     
   20.017889811090317     
   20.002478634519655     
   512.21494846262408     
   20.013381579762736     
   20.000213373437013     
   20.000298130686634     
   20.003276117677096     
   329.05423701629235     
   20.017846264323296     
   64.942196787251632     
   65.729037312683914     
   20.000415661005334     
   20.002147975693500     
   131.98128958743825     
   20.024197055417694     
   20.000806664399335     
   20.000477707165626     
   20.000072478397602     
   43.753821013162970     
   72.664222171606625     
   20.051179484173549     
   23.318707044766423     
   20.000816666123370     
   20.000013773442145     
   254.21366302309391     
   208.57144163834141     
   20.004559095212826     
   20.001587373958206     
   20.000589509189279     
   50.590915235861083     
   59.077198180625700     
   20.001716960158781     
   1016.4727919739694     
   20.899453016966426     
   133.26730053313358     
   20.001128842277062     
   173.24504539161180     
   164.49847844472927     
   42.441029326674098     
   20.001284415563831     
   38.460240118504693     
   20.003035769964438     
   20.026353583182530     
   20.034968694878302     
   65.342898394536135     
   20.000028291206636     
   269.90316235814777     
   20.213217469704020     
   28.514956649109152     
   28.524957654853683     
   33.347810663605571     
   20.000015287912728     
   587.01109351479170     
   20.003181526286856     
   20.000025052235202     
   20.001563407147611     
   30.395827102575215     
   20.002153065842752     
   113.04052072606902     
   20.014955874384594     
   20.019885228872436     
   20.006154170940707     
   107.50096918649869     
   25.710493271288183     
   20.001769461647324     
   20.000028775635823     
   20.002436600576981     
   20.000047406542823     
   27.331198643690925     
   20.000013404496674     
   20.006970654449667     
   20.001151448820153     
   20.011154143798052     
   20.014775546099724     
   20.271618502757743     
   20.002941195448624     
   25.668296681762502     
   20.000033062721844     
   20.022584146998053     
   62.967680244712817     
   20.011165291864742     
   59.703319632267167     
   20.012646604863534     
   20.000833639106975     
   20.000019624024915     
   20.000955677966303     
   20.004062328666532     
   20.000040593624966     
   23.017689167866052     
   20.000208491921974     
   23.940765721016902     
   20.000692214530797     
   20.026584854104520     
   20.000021733719041     
   21.555319508860375     
   20.029969593712778     
   36.522476944814308     
   42.758728198731831     
   337.39117400008718     
   21.611967331708801     
   59.254088584597604     
   75.750179615796426     
   1437.2653173667557     
   72.335652216288707     
   20.774781614969601     
   20.000600827715431     
   20.000308397561984     
   20.061306211236037     
   20.004522860723888     
   22.058339776960125     
   1519.3907252941617     
   20.000253419842448     
   20.000498034351658     
   20.001313530337452     
   20.068674483910556     
   20.005124868504083     
   20.000039544792649     
   748.78727874654442     
   577.79929755925843     
   20.136548448692004     
   20.034558899488001     
   20.010053549711156     
   21.042820628809157     
   20.000045523419622     
   20.152119022512075     
   1462.7594222619960     
   33.709721900039142     
   20.408239645296891     
   20.003757720609936     
   20.003972758725482     
   20.002916650548027     
   20.000043598550931     
   20.294164978333306     
   20.000039596297718     
   1387.0174816445813     
   1190.0710516632309     
   20.000010532794104     
   1256.7339822665222     
   20.000045102992821     
   20.325914839401570     
   1370.9370181500531     
   20.031598718241870     
   34.234778995783884     
   872.94582677364247     
   1393.9721889659029     
   20.000114615122222     
   27.560831957048794     
   20.000021129369731     
   20.000432276705684     
   20.003357976112476     
   20.004592794732790     
   20.000219367674514     
   20.000026713021146     
   20.000126573415166     
   20.000021979121577     
   926.49223213551659     
   24.068296778378308     
   20.000355287911088     
   666.01258076437296     
   20.000019268966103     
   20.000179043679903     
   22.127153446742696     
   21.078259213017503     
   20.000013961650804     
   20.000018781254571     
   1181.8393136946086     
   20.000030533987179     
   1292.9237356349854     
   1075.8766712744380     
   20.004110006005970     
   20.003376396467196     
   1483.0614079225654     
   33.609551017084421     
   341.39109316678059     
   20.090866570725591     
   20.000026683788352     
   20.000014940642568     
   20.000051468303450     
   786.30012195758559     
   20.001815597153513     
   20.000035390061694     
   20.000579052297940     
   20.001622294747317     
   20.019979387500900     
   1323.2419257036750     
   766.40312265009811     
   20.000021377970221     
   20.000043458009291     
   55.319953017995665     
   1206.2253508400104     
   20.001793672417822     
   20.000062462679722     
   1216.7137450262273     
   1294.9349089252626     
   20.022412639140050     
   20.008311672279451     
   1013.2990350715324     
   20.000037087499425     
   20.000113441144755     
   20.000077491524721     
   20.000079817394472     
   918.58807664794188     
   20.009379835851046     
   20.000109846680605     
   20.000129594319937     
   33.734704842689311     
   30.134024865725511     
   20.000062183236114     
   20.000027602668723     
   20.026115467354963     
   20.000062130479758     
   1146.6436007839231     
   20.000088095790169     
   1044.6365484998366     
   20.000056834781059     
   866.82203130534128     
   20.000027799066558     
   981.61967215843447     
   785.39897095920890     
   1037.2856192278246     
   1212.4549484191980     
   1043.1817636506166     
   20.000057882399059     
   20.000030625280964     
   20.000043797520352     
   877.80304642924648     
   847.39327051334703     
   770.11138539574085     
   742.20340164542790     
   1125.3034246808861     
   670.81555407039787     
   20.001573246659675     
   20.000056247650409     
   20.000162380863909     
   20.000156225502671     
   1235.3752537423720     
   896.99849318230360     
   899.47189638262159     
   973.58896476537677     
   636.67345978349238     
   729.08554562329766     
   20.000179720650937     
   20.000149152798102     
   20.000359584614944     
   572.37316730004522     
   839.83612700206220     
   570.04855766000378     
   20.000182662939402     
   20.000477536094376     
   20.000608807808501     
   636.91613651654927     
   478.75901820553224     
   773.74090207807660     
   20.000314485116522     
   622.09230705955213     
   659.21470449706010     
   20.000159666647523     
   20.000449659595557     
   669.68534062919184     
   20.000841951473710     
   20.000436648879688     
   546.18587409043653     
   20.000662851139069     
   20.000501615348593     
   20.000419208553577     
   20.000963425022935     
   572.53513828325288     
   466.71646973775285     
   489.39618407244507     
   20.000175943948275     
   398.35222665293333     
   419.25225694638709     
   20.001863060750207     
   20.002184023153070     
   20.000225501112720     
   20.002070704747414     
   722.86948482064884     
   20.004029411551954     
   20.004627427285016     
   20.005494739775788     
   20.002355335359457     
   305.94157701857881     
   20.003504428152365     
   20.002983932901717     
   413.64906367163348     
   20.005558839633547     
   20.004077200970368     
   20.000245932333620     
   20.006172204819958     
   20.005361785283537     
   20.004296584338455     
   20.010021037541723     
   20.004776033451002     
   20.018008319290509     
   20.020497150938454     
   20.042804893168668     
   20.032213141762838     
   20.028088517473535     
   20.037225676805019     
   20.055649051294001     
   20.124540196206386     
   20.064658948142682     
   20.056214525067947     
   20.096919420509106     
   20.073958264313617     
   20.269588706418144     
   20.143844419481624     
   20.125780374646432     
   20.212162210110375     
   20.163634380432352     
   20.143664899751187     
   20.084714152400302     
   20.184907037350218     
   20.151153666410181     
   20.118169892256113     
   20.111026137094992     
   20.563308468044283     
   20.309557954641047     
   20.272211267523250     
   20.449446415533426     
   20.350262209010733     
   20.186377467820570     
   402.39983831716029     
   21.143058326737766     
   20.645228420764202     
   20.569712872911190     
   20.919064137322916     
   20.723535771568656     
   20.396768989358204     
   20.788233667785583     
   20.638450072310246     
   20.482182510034260     
   20.611989592088271     
   22.248150435004575     
   21.301471091389363     
   21.155573518216308     
   21.825673481317853     
   21.454920585505974     
   20.818102472415525     
   20.510356600926965     
   24.294175707751211     
   22.545840803590771     
   22.272128016436671     
   23.519050907421374     
   22.832374754034866     
   21.632840160137366     
   22.879245287456978     
   22.388806913962888     
   21.851836036553799     
   22.304319200067091     
   27.975680574800691     
   24.837287328399807     
   24.338487189078283     
   26.597980067248201     
   25.350034542469785     
   23.162678625750189     
   251.37798503010177     
   288.11673641951512     
   261.65424833722506     
   21.941194594881924     
   29.825849087835895     
   144.36253896473400     
   304.37083949450266     
   158.21199161073187     
   143.93170262465756     
   160.40805821912551     
   34.427000991995378     
   282.40483775351390     
   253.80759206825522     
   303.27159383213973     
   28.940419847975583     
   28.055515520492509     
   82.687840946866544     
   247.58736872228474     
   136.93787391629289     
   77.669718854204532     
   161.95797838746770     
   25.953586324551939     
   124.42454856280648     
   246.79880667859391     
   30.927969759102044     
   32.045188095734787     
   337.94145867358407     
   214.14818631802001     
   193.22069589182811     
   138.56474492649332     
   48.780734524670429     
   116.68183830275252     
   41.228884739013608     
   39.422577528451328     
   90.970936570940182     
   50.081260881474883     
   342.66243218828828     
   36.087566307686508     
   34.564129098158801     
   261.42557211283673     
   40.831687731993654     
   251.21115761193531     
   94.193920133853041     
   167.11591420484569     
   48.247263822374094     
   186.08988695331485     
   185.26045033644587     
   183.30730499649206     
   243.65415841238769     
   37.553175617811348     
   166.98306231234343     
   109.50984234650214     
   108.30015204296079     
   308.39028908640631     
   103.13929838788397     
   341.65921948324728     
   70.417422412000377     
   79.326332058544608     
   90.785596878878124     
   225.02870673159592     
   355.60638892347720     
   54.786005685181252     
   196.05049720216169     
   277.05194293488086     
   20.007758458079653     
   83.141210911382586     
   89.256602926671135     
   323.02477461569293     
   20.017066172674614     
   20.009651255702639     
   72.151462589812823     
   39.471933870459125     
   95.309688288598608     
   145.82570542925609     
   446.48699027571604     
   325.12343963725363     
   239.88776188116569     
   272.19022654715269     
   152.80775709229587     
   100.94935123974787     
   68.774945531271740     
   49.007612981361667     
   36.982000271350756     
   29.664952762863734     
   25.423046450072857     
   22.946944521733702     
   21.567821825649510     
   20.807196738767637     
   20.403249825222240     
   20.192770770119679     
   20.091829802372786     
   20.041293161214440     
   20.018281023113897     
   20.013795280745736     
   20.010337427345608     
   20.012848714836441     
   20.005768545847207     
   20.007211478516620     
   20.002348598129704     
   20.000914976100557     
   20.000343609323714     
   20.000124906944166     
   20.010153981882254     
   20.000126957468904     
   20.000358794849713     
   20.000976611367783     
   20.002568089473797     
   20.006496930796999     
   20.011813918176177     
   20.015804340489378     
   20.013645645105580     
   20.021113888594968     
   20.018272749585801     
   20.049287029596318     
   20.110871782192525     
   20.241206180260328     
   20.507989337136003     
   21.035764196188978     
   22.046331934975889     
   23.925046575878788     
   27.319098594101412     
   33.289787333127926     
   43.551660971432746     
   60.868556513227134     
   89.688122504609765     
   102.93929175871637     
   95.565502345405548     
   118.70882902692409     
   136.91760774850778     
   213.55334966045532     
   336.68150237139628     
   532.87138263762438     
   102.59992540896266     
   216.27264789920014     
   227.29608849617603     
   160.69360935325471     
   20.007531070742665     
   118.13215627866819     
   292.74759901279162     
   69.370040153618362     
   126.00125985959207     
   53.974943151400367     
   20.008754356067715     
   60.900922746115050     
   109.28275011211299     
   265.09320528045095     
   72.722275001564398     
   359.15110199301290     
   50.292950786832975     
   79.535660925197433     
   168.87371727398414     
   124.50098804456822     
   64.660266325148513     
   119.95940458745203     
   54.901576746458069     
   57.090097054722150     
   51.036124129343619     
   70.198288048711234     
   61.716100157233875     
   138.51388301696340     
   291.71395739419535     
   179.73547321485540     
   126.54722033648608     
   56.418780276494473     
   40.119954135818681     
   68.715658037228891     
   119.57097249199182     
   82.207419306963203     
   63.636263727847201     
   78.238098896457714     
   45.195150461489774     
   104.28097995228083     
   48.281591211924699     
   49.133872414712648     
   41.251596552354876     
   45.692403753694350     
   44.157054780518052     
   156.13533690203721     
   49.066549761736461     
   157.96417070900313     
   37.295957292787399     
   43.604415936815215     
   102.05312455488250     
   39.960107262982831     
   29.217897030953264     
   37.305248284617775     
   104.37193681934670     
   94.340162775628301     
   108.31251966325168     
   36.379464625504021     
   31.247291433526048     
   192.87873572969150     
   29.714985546256393     
   224.25596341168739     
   34.476174161260730     
   33.678151129455976     
   25.029343337077204     
   29.589557529204676     
   31.922038048876008     
   215.68543900430359     
   29.127996337991444     
   31.218221266075194     
   29.635972517104040     
   29.822793115661369     
   25.330971523323317     
   29.170068777486147     
   26.123773718668524     
   28.069570468294259     
   27.533958020105874     
   26.608620527731286     
   22.644210902041081     
   25.245467703150165     
   26.153157710840610     
   25.368616787210492     
   24.990991076545662     
   22.843485065011503     
   23.258273047629878     
   24.368406650107040     
   24.061739202094454     
   23.540385539074283     
   21.375724746677218     
   22.776977364048243     
   23.283241427403571     
   22.847215821825063     
   22.637032457422443     
   21.471218093833883     
   21.708631209913865     
   22.297738775355420     
   22.126548563652584     
   21.847349744152535     
   20.686993206038295     
   21.429920999266553     
   21.705061820155887     
   21.473788068424646     
   21.358238077020456     
   20.746430860823658     
   20.861083576102871     
   21.176681532539561     