# vtk DataFile Version 2.0
 temperature
 ASCII
 DATASET UNSTRUCTURED_GRID
 POINTS         773  double
   0.0000000000000000        0.0000000000000000        0.0000000000000000     
   3.5000000000000000        0.0000000000000000        0.0000000000000000     
   3.5000000000000000        40.000000000000000        0.0000000000000000     
   0.0000000000000000        40.000000000000000        0.0000000000000000     
  0.43750000000000000        0.0000000000000000        0.0000000000000000     
  0.87500000000000000        0.0000000000000000        0.0000000000000000     
   1.3125000000000000        0.0000000000000000        0.0000000000000000     
   1.7500000000000000        0.0000000000000000        0.0000000000000000     
   2.1875000000000000        0.0000000000000000        0.0000000000000000     
   2.6250000000000000        0.0000000000000000        0.0000000000000000     
   3.0625000000000000        0.0000000000000000        0.0000000000000000     
   3.5000000000000000       0.50000000000000000        0.0000000000000000     
   3.5000000000000000        1.0000000000000000        0.0000000000000000     
   3.5000000000000000        1.5000000000000000        0.0000000000000000     
   3.5000000000000000        2.0000000000000000        0.0000000000000000     
   3.5000000000000000        2.5000000000000000        0.0000000000000000     
   3.5000000000000000        3.0000000000000000        0.0000000000000000     
   3.5000000000000000        3.5000000000000000        0.0000000000000000     
   3.5000000000000000        4.0000000000000000        0.0000000000000000     
   3.5000000000000000        4.5000000000000000        0.0000000000000000     
   3.5000000000000000        5.0000000000000000        0.0000000000000000     
   3.5000000000000000        5.5000000000000000        0.0000000000000000     
   3.5000000000000000        6.0000000000000000        0.0000000000000000     
   3.5000000000000000        6.5000000000000000        0.0000000000000000     
   3.5000000000000000        7.0000000000000000        0.0000000000000000     
   3.5000000000000000        7.5000000000000000        0.0000000000000000     
   3.5000000000000000        8.0000000000000000        0.0000000000000000     
   3.5000000000000000        8.5000000000000000        0.0000000000000000     
   3.5000000000000000        9.0000000000000000        0.0000000000000000     
   3.5000000000000000        9.5000000000000000        0.0000000000000000     
   3.5000000000000000        10.000000000000000        0.0000000000000000     
   3.5000000000000000        10.500000000000000        0.0000000000000000     
   3.5000000000000000        11.000000000000000        0.0000000000000000     
   3.5000000000000000        11.500000000000000        0.0000000000000000     
   3.5000000000000000        12.000000000000000        0.0000000000000000     
   3.5000000000000000        12.500000000000000        0.0000000000000000     
   3.5000000000000000        13.000000000000000        0.0000000000000000     
   3.5000000000000000        13.500000000000000        0.0000000000000000     
   3.5000000000000000        14.000000000000000        0.0000000000000000     
   3.5000000000000000        14.500000000000000        0.0000000000000000     
   3.5000000000000000        15.000000000000000        0.0000000000000000     
   3.5000000000000000        15.500000000000000        0.0000000000000000     
   3.5000000000000000        16.000000000000000        0.0000000000000000     
   3.5000000000000000        16.500000000000000        0.0000000000000000     
   3.5000000000000000        17.000000000000000        0.0000000000000000     
   3.5000000000000000        17.500000000000000        0.0000000000000000     
   3.5000000000000000        18.000000000000000        0.0000000000000000     
   3.5000000000000000        18.500000000000000        0.0000000000000000     
   3.5000000000000000        19.000000000000000        0.0000000000000000     
   3.5000000000000000        19.500000000000000        0.0000000000000000     
   3.5000000000000000        20.000000000000000        0.0000000000000000     
   3.5000000000000000        20.500000000000000        0.0000000000000000     
   3.5000000000000000        21.000000000000000        0.0000000000000000     
   3.5000000000000000        21.500000000000000        0.0000000000000000     
   3.5000000000000000        22.000000000000000        0.0000000000000000     
   3.5000000000000000        22.500000000000000        0.0000000000000000     
   3.5000000000000000        23.000000000000000        0.0000000000000000     
   3.5000000000000000        23.500000000000000        0.0000000000000000     
   3.5000000000000000        24.000000000000000        0.0000000000000000     
   3.5000000000000000        24.500000000000000        0.0000000000000000     
   3.5000000000000000        25.000000000000000        0.0000000000000000     
   3.5000000000000000        25.500000000000000        0.0000000000000000     
   3.5000000000000000        26.000000000000000        0.0000000000000000     
   3.5000000000000000        26.500000000000000        0.0000000000000000     
   3.5000000000000000        27.000000000000000        0.0000000000000000     
   3.5000000000000000        27.500000000000000        0.0000000000000000     
   3.5000000000000000        28.000000000000000        0.0000000000000000     
   3.5000000000000000        28.500000000000000        0.0000000000000000     
   3.5000000000000000        29.000000000000000        0.0000000000000000     
   3.5000000000000000        29.500000000000000        0.0000000000000000     
   3.5000000000000000        30.000000000000000        0.0000000000000000     
   3.5000000000000000        30.500000000000000        0.0000000000000000     
   3.5000000000000000        31.000000000000000        0.0000000000000000     
   3.5000000000000000        31.500000000000000        0.0000000000000000     
   3.5000000000000000        32.000000000000000        0.0000000000000000     
   3.5000000000000000        32.500000000000000        0.0000000000000000     
   3.5000000000000000        33.000000000000000        0.0000000000000000     
   3.5000000000000000        33.500000000000000        0.0000000000000000     
   3.5000000000000000        34.000000000000000        0.0000000000000000     
   3.5000000000000000        34.500000000000000        0.0000000000000000     
   3.5000000000000000        35.000000000000000        0.0000000000000000     
   3.5000000000000000        35.500000000000000        0.0000000000000000     
   3.5000000000000000        36.000000000000000        0.0000000000000000     
   3.5000000000000000        36.500000000000000        0.0000000000000000     
   3.5000000000000000        37.000000000000000        0.0000000000000000     
   3.5000000000000000        37.500000000000000        0.0000000000000000     
   3.5000000000000000        38.000000000000000        0.0000000000000000     
   3.5000000000000000        38.500000000000000        0.0000000000000000     
   3.5000000000000000        39.000000000000000        0.0000000000000000     
   3.5000000000000000        39.500000000000000        0.0000000000000000     
   3.0625000000000000        40.000000000000000        0.0000000000000000     
   2.6250000000000000        40.000000000000000        0.0000000000000000     
   2.1875000000000000        40.000000000000000        0.0000000000000000     
   1.7500000000000000        40.000000000000000        0.0000000000000000     
   1.3125000000000000        40.000000000000000        0.0000000000000000     
  0.87500000000000000        40.000000000000000        0.0000000000000000     
  0.43750000000000000        40.000000000000000        0.0000000000000000     
   0.0000000000000000        39.500000000000000        0.0000000000000000     
   0.0000000000000000        39.000000000000000        0.0000000000000000     
   0.0000000000000000        38.500000000000000        0.0000000000000000     
   0.0000000000000000        38.000000000000000        0.0000000000000000     
   0.0000000000000000        37.500000000000000        0.0000000000000000     
   0.0000000000000000        37.000000000000000        0.0000000000000000     
   0.0000000000000000        36.500000000000000        0.0000000000000000     
   0.0000000000000000        36.000000000000000        0.0000000000000000     
   0.0000000000000000        35.500000000000000        0.0000000000000000     
   0.0000000000000000        35.000000000000000        0.0000000000000000     
   0.0000000000000000        34.500000000000000        0.0000000000000000     
   0.0000000000000000        34.000000000000000        0.0000000000000000     
   0.0000000000000000        33.500000000000000        0.0000000000000000     
   0.0000000000000000        33.000000000000000        0.0000000000000000     
   0.0000000000000000        32.500000000000000        0.0000000000000000     
   0.0000000000000000        32.000000000000000        0.0000000000000000     
   0.0000000000000000        31.500000000000000        0.0000000000000000     
   0.0000000000000000        31.000000000000000        0.0000000000000000     
   0.0000000000000000        30.500000000000000        0.0000000000000000     
   0.0000000000000000        30.000000000000000        0.0000000000000000     
   0.0000000000000000        29.500000000000000        0.0000000000000000     
   0.0000000000000000        29.000000000000000        0.0000000000000000     
   0.0000000000000000        28.500000000000000        0.0000000000000000     
   0.0000000000000000        28.000000000000000        0.0000000000000000     
   0.0000000000000000        27.500000000000000        0.0000000000000000     
   0.0000000000000000        27.000000000000000        0.0000000000000000     
   0.0000000000000000        26.500000000000000        0.0000000000000000     
   0.0000000000000000        26.000000000000000        0.0000000000000000     
[...]
 CELL_DATA        1368
 SCALARS T double
 LOOKUP_TABLE default
   20.042256556819321     
   20.666811823562785     
   1661.7534382752563     
   29.247820165791119     
   20.000000000000554     
   20.119712200508101     
   1266.6573710479377     
   20.101053522235077     
   20.001345882328419     
   20.077465699209917     
   20.002814564617669     
   25.445026727666477     
   20.061844984506575     
   30.046535424431088     
   26.081834066976000     
   1199.3141951399034     
   1662.5535480111441     
   20.008828165598665     
   20.007172078662354     
   20.212791846638378     
   20.005395943423604     
   20.000057310722507     
   1725.6441160680320     
   20.000131578435138     
   20.033987832400570     
   20.715591632538452     
   20.004035056107721     
   20.150227844277033     
   20.048319753375200     
   20.001686017699726     
   20.229323052658561     
   20.000000000001741     
   20.545721767853067     
   20.757750259663599     
   20.799993084854918     
   20.000000000001389     
   20.016512015930211     
   20.000460666996066     
   20.003286410416276     
   20.000364942588895     
   20.000187801146431     
   20.065726305125345     
   20.000264861727480     
   28.831635021913705     
   20.011376685809882     
   372.25036023030208     
   365.50333238713847     
   20.047800450217174     
   20.073546903080079     
   670.11868737426050     
   672.09934411687686     
   20.002173174286881     
   20.018249967851606     
   20.000000000001261     
   1699.0223495967393     
   20.000000000000984     
   20.000000000005212     
   20.000041475629331     
   20.000018492210152     
   20.000075329094628     
   20.000000000008011     
   28.342356938393763     
   20.000153765022162     
   20.000000000026173     
   20.171060453786961     
   20.247670417895424     
   20.000903891432852     
   20.253918025939250     
   20.003034855329592     
   20.004918158702022     
   20.000000000003773     
   1665.6122128305014     
   20.000000000011511     
   20.004446622323186     
   20.000603295318221     
   20.001044075826272     
   20.000000000053056     
   20.000000000256566     
   20.000000000002540     
   346.81094495569408     
   20.000098448906176     
   20.000014748151312     
   190.07361747949997     
   20.000005226248486     
   104.80727325386631     
   20.012868990256766     
   20.019934689757527     
   343.35080722320106     
   20.000030986662832     
   837.21736846533156     
   20.000136040769561     
   20.000236952613118     
   37.226415730524366     
   20.000000002304915     
   781.51764423595534     
   20.000000992522345     
   26.942280032873640     
   20.000000000502499     
   20.000001566317199     
   20.000000000081840     
   188.83427814262947     
   20.000000000037758     
   177.63927451823685     
   178.76764668186578     
   20.000210240735495     
   20.000025661158258     
   20.000000000002565     
   20.001114529805552     
   20.000000000001837     
   20.000000000112873     
   21.660561326984659     
   463.79379458710793     
   21.054679728110994     
   20.000000373236720     
   20.000000000017778     
   20.000000000000608     
   101.46686692483873     
   20.339451595613916     
   101.74468479899798     
   20.000000069434673     
   20.000000000037865     
   20.000000334494331     
   20.000011208963354     
   104.18221915583420     
   20.101078402911998     
   247.69263466718294     
   20.000688803273793     
   20.001107306221510     
   20.000007351485227     
   20.021510462943350     
   20.000000000003681     
   20.000000526891352     
   472.90289579626784     
   20.027429207812990     
   20.000000000363745     
   20.000000004420496     
   20.006787067316228     
   59.905831059990909     
   1306.2941739867017     
   59.938431301560648     
   991.00463499808188     
   448.14393616511637     
   136.92423712266313     
   20.000000704370208     
   20.000004009103662     
   20.000000062665073     
   470.14894112403709     
   20.000002173181151     
   20.000000000177124     
   20.000000000365610     
   20.000000068208589     
   250.77453788277785     
   20.000003378730746     
   38.228385453744423     
   38.176614500648135     
   20.000000000762256     
   20.000000054395855     
   76.208413765283495     
   20.000010278881980     
   20.000000003199986     
   20.000000001043187     
   20.000000000017284     
   27.320069062632122     
   37.066781365569945     
   20.000046075318309     
   20.179641151872367     
   20.000000003231513     
   20.000000000000551     
   206.61693082139726     
   138.48514451862647     
   20.000000233353049     
   20.000000019166595     
   20.000000001598284     
   26.883761982478472     
   30.609197809455374     
   20.000000036721417     
   993.99233776401456     
   20.014087930973126     
   76.746865043609830     
   20.000000006596395     
   126.08902867390518     
   119.43541425762496     
   24.105847510534712     
   20.000000008827794     
   23.808367470414968     
   20.000000090793996     
   20.000008068852843     
   20.000014635039960     
   35.875466489825335     
   20.000000000002441     
   220.09429712743449     
   20.000766510812838     
   21.090925089028783     
   21.072948616528279     
   21.692975567687494     
   20.000000000001027     
   547.67070201987792     
   20.000000138157635     
   20.000000000002085     
   20.000000013308618     
   21.032464100830325     
   20.000000026513671     
   72.896003575443402     
   20.000002431049111     
   20.000004447171474     
   20.000000264120718     
   69.365147247336736     
   20.466942835053590     
   20.000000017606396     
   20.000000000002917     
   20.000000035033825     
   20.000000000007329     
   20.562526871907561     
   20.000000000000927     
   20.000000351354078     
   20.000000009631254     
   20.000000941180836     
   20.000002851628231     
   20.001217277142509     
   20.000000051882818     
   20.332085447974283     
   20.000000000003425     
   20.000008187840834     
   34.579596361136979     
   20.000001309846773     
   30.769147671274503     
   20.000001254547872     
   20.000000004801642     
   20.000000000001624     
   20.000000006769532     
   20.000000143889455     
   20.000000000005148     
   20.098716014936169     
   20.000000000171610     
   20.173515950169492     
   20.000000003373721     
   20.000005973930428     
   20.000000000001766     
   20.026766463430249     
   20.000007849476980     
   23.163082345430098     
   24.152289483744191     
   278.85098987507035     
   20.041687824777821     
   33.976679659430971     
   44.691701038543229     
   1417.5013490276915     
   42.966603247222949     
   20.006624893773587     
   20.000000002369877     
   20.000000000559183     
   20.000034897356716     
   20.000000136118885     
   20.049071372058140     
   1496.4973855057740     
   20.000000000384556     
   20.000000001660563     
   20.000000013414503     
   20.000045141718509     
   20.000000181953542     
   20.000000000009564     
   698.94257099572474     
   542.08764979719047     
   20.000186706206986     
   20.000016958169429     
   20.000001184218764     
   20.012710004442212     
   20.000000000007066     
   20.000238101518043     
   1441.3496191980319     
   21.734236617950351     
   20.002679003311211     
   20.000000093613810     
   20.000000203429458     
   20.000000104664146     
   20.000000000008363     
   20.000916469697735     
   20.000000000007667     
   1353.0153537940632     
   1181.4314676503925     
   20.000000000000654     
   1226.4714324460454     
   20.000000000010896     
   20.001152087821296     
   1344.2905837694341     
   20.000013277411075     
   22.894545212898002     
   837.56523609630449     
   1365.9867426078220     
   20.000000000077524     
   20.579585282712394     
   20.000000000001251     
   20.000000001164590     
   20.000000100508721     
   20.000000196716869     
   20.000000000268521     
   20.000000000002689     
   20.000000000085606     
   20.000000000002260     
   887.88291412295632     
   20.178861070499707     
   20.000000000801780     
   615.34208487863873     
   20.000000000001961     
   20.000000000182204     
   20.050635737982041     
   20.013120619749309     
   20.000000000000590     
   20.000000000001229     
   1146.3637651487256     
   20.000000000005954     
   1269.4438477466992     
   1037.2547903939924     
   20.000000174652445     
   20.000000122114830     
   1454.2780647725676     
   22.665506555531145     
   284.70326600901461     
   20.000121408009022     
   20.000000000002238     
   20.000000000001268     
   20.000000000008054     
   741.44846317252598     
   20.000000032175503     
   20.000000000004430     
   20.000000001565109     
   20.000000023808212     
   20.000003259224911     
   1290.5351068468212     
   746.92039013650219     
   20.000000000002714     
   20.000000000005535     
   31.723539230479524     
   1161.9848704356245     
   20.000000026203256     
   20.000000000018495     
   1188.2874691263096     
   1255.4834092854612     
   20.000004241227224     
   20.000000502174181     
   969.59577315708805     
   20.000000000004672     
   20.000000000094989     
   20.000000000028066     
   20.000000000044341     
   872.36907380977641     
   20.000000662970166     
   20.000000000059842     
   20.000000000108471     
   22.090353595275730     
   21.466949099502596     
   20.000000000028326     
   20.000000000004345     
   20.000009460955756     
   20.000000000012061     
   1104.7511445783566     
   20.000000000060343     
   999.12516017461985     
   20.000000000016872     
   815.82183957318421     
   20.000000000003499     
   930.94054972291519     
   732.55330375735684     
   1001.0221443872930     
   1175.5178196437287     
   989.70336383443191     
   20.000000000011138     
   20.000000000003833     
   20.000000000013195     
   834.42741981405595     
   789.65160987153399     
   710.33023332739458     
   685.01966784154615     
   1076.1906954955921     
   612.56091184019567     
   20.000000027858253     
   20.000000000020673     
   20.000000000165148     
   20.000000000128409     
   1213.6578089702307     
   835.40228694434882     
   846.10061035480271     
   915.90703947210386     
   581.84198404464439     
   665.62395640024829     
   20.000000000121762     
   20.000000000081513     
   20.000000000989964     
   495.39084298351730     
   774.87032165590063     
   493.91337199497264     
   20.000000000228891     
   20.000000002346631     
   20.000000003606324     
   574.91662854935316     
   420.48760204647959     
   705.66090390437273     
   20.000000000865892     
   546.68626569046455     
   594.44705517032833     
   20.000000000199815     
   20.000000001499721     
   596.62279509225300     
   20.000000007247301     
   20.000000001759425     
   480.41184753470020     
   20.000000004752415     
   20.000000001123677     
   20.000000000764938     
   20.000000008290673     
   510.12622283677507     
   398.03152096031346     
   424.07567025522650     
   20.000000000270401     
   328.28340547122434     
   351.83014143195209     
   20.000000019075092     
   20.000000026959370     
   20.000000000420723     
   20.000000029888646     
   651.98127185449175     
   20.000000101953674     
   20.000000138873478     
   20.000000198507649     
   20.000000040959474     
   257.91484613005230     
   20.000000074223440     
   20.000000052780120     
   340.84851619974006     
   20.000000200581944     
   20.000000103138106     
   20.000000000557666     
   20.000000446661961     
   20.000000387033523     
   20.000000263310120     
   20.000000718429515     
   20.000000144330759     
   20.000002510090706     
   20.000003344513196     
   20.000015525763114     
   20.000008511308526     
   20.000006344190076     
   20.000011516438068     
   20.000027381376949     
   20.000148463973392     
   20.000036925068287     
   20.000027606042611     
   20.000086706574312     
   20.000049168822386     
   20.000738688797181     
   20.000197260281702     
   20.000149644904479     
   20.000444169475418     
   20.000258965834909     
   20.000393097782748     
   20.000065165394009     
   20.000664941521169     
   20.000477190648443     
   20.000284418321911     
   20.000230102825395     
   20.003354185063596     
   20.000966966079535     
   20.000744346835369     
   20.002087613346781     
   20.001251482060709     
   20.000338317024482     
   325.78106337518886     
   20.014039888998841     
   20.004351958886549     
   20.003390583389542     
   20.008941150872040     
   20.005510886052132     
   20.001611704410401     
   20.012382479428734     
   20.008863783178800     
   20.004655540084777     
   20.007514748917867     
   20.053887933477817     
   20.017934412453229     
   20.014183563718415     
   20.035308741947627     
   20.022478846853314     
   20.007045298440904     
   20.005630282551945     
   20.189950988061430     
   20.067819978079342     
   20.054419863546986     
   20.127918672299529     
   20.083824526004705     
   20.028200670906326     
   20.155717767912705     
   20.117183250565933     
   20.066809546708519     
   20.101966847635747     
   20.615135891248102     
   20.235512498154328     
   20.191728775483540     
   20.426284113402399     
   20.286353488228841     
   20.103642114818964     
   188.33982698296876     
   214.90499030111727     
   200.47475507198453     
   20.078499376188347     
   20.898144731373925     
   92.898065320129021     
   232.02742167394220     
   98.092925285197865     
   87.267378811219970     
   105.20442094506546     
   21.832461637949667     
   225.50252748313744     
   180.98069226614695     
   241.25059312707327     
   20.751811112322006     
   20.620698750220619     
   46.290983663469795     
   176.70430483075577     
   81.170615956245896     
   44.256064582188948     
   100.16623747307365     
   20.349944716719094     
   72.275505517343547     
   192.98830551166699     
   21.090097174259608     
   21.306939033238635     
   263.35104768529970     
   146.13518757818503     
   128.60508717365855     
   84.382655885540203     
   27.304659413639389     
   72.640099388421874     
   23.622714269362284     
   23.296202105151924     
   51.172690872494286     
   28.087718968925120     
   278.06064681007280     
   22.204543867309152     
   21.847296070655435     
   190.80661511180111     
   23.793303547307815     
   183.65179708854097     
   51.022574962805351     
   112.44804735662193     
   27.624461128224759     
   124.17872781182014     
   127.13224177091574     
   119.03133762315682     
   186.75592951111108     
   22.584670215351434     
   106.05776919349762     
   59.354867094726146     
   60.546787165350189     
   240.36461379049922     
   63.283164636321928     
   271.47503481423644     
   40.164678374801994     
   43.637049695737275     
   49.614616467120321     
   156.94634262265367     
   282.24064129791736     
   29.412081168401450     
   134.13798290109619     
   238.58379393286472     
   20.000000928163793     
   45.157274869123661     
   47.543725964960913     
   281.75280722795992     
   20.000004534268893     
   20.000001352559472     
   37.776842528586329     
   23.101662234919267     
   53.064973864290081     
   91.057685452816642     
   414.64131534218183     
   287.99818356392706     
   200.12289526636633     
   229.69126420778403     
   114.56253993447264     
   67.726831316484478     
   42.606591324074699     
   29.998002118707721     
   24.104053325297102     
   21.547618092151072     
   20.543129451547522     
   20.174701733737479     
   20.051806615253639     
   20.014047980556892     
   20.003508781240502     
   20.000789252796498     
   20.000168712270586     
   20.000032168242399     
   20.000005709777874     
   20.000003145734329     
   20.000001717733621     
   20.000002493777437     
   20.000000495974422     
   20.000000726961293     
   20.000000071841860     
   20.000000009512995     
   20.000000001151037     
   20.000000000128878     
   20.000000728871683     
   20.000000000057209     
   20.000000000544041     
   20.000000004734417     
   20.000000038083449     
   20.000000279142427     
   20.000001003871045     
   20.000001868515696     
   20.000001370997683     
   20.000003461844859     
   20.000002554849051     
   20.000020845550473     
   20.000114553276603     
   20.000577673398777     
   20.002673913685953     
   20.011345497446939     
   20.044132146957359     
   20.157605936119737     
   20.517081345173960     
   21.560294060254737     
   24.338424544485733     
   31.145945296242132     
   46.575298193202840     
   54.921110584823886     
   50.250345431948041     
   65.636412115235288     
   78.899671050655598     
   141.93074752204981     
   256.83018589133138     
   454.33224255167869     
   56.209911438825813     
   151.19470703459203     
   162.69994825966529     
   102.41406560629534     
   20.000000384561982     
   67.066818490623575     
   223.41499809285244     
   36.807771492146365     
   75.326189105483337     
   28.638887897327386     
   20.000000528729711     
   31.783619901944036     
   62.852225647289053     
   198.29737824462441     
   38.948119056717680     
   290.79348939435403     
   27.225755590033067     
   42.570156560806062     
   110.30859367312118     
   76.740177390543693     
   34.503219729955340     
   70.058713109674258     
   30.049691830276259     
   30.668087209984307     
   27.914217134935875     
   36.198577265296777     
   32.706687620329596     
   86.910187473640988     
   227.79754212434759     
   126.93666686398471     
   71.324249945067223     
   29.856415086849790     
   23.939293784970058     
   35.708253350783302     
   72.013309019749428     
   43.528511291446556     
   33.290580779694501     
   40.943010622813951     
   25.271174061403205     
   58.721814489427913     
   26.329022368670614     
   26.522086214798342     
   24.146497198350158     
   25.748436046656305     
   25.062731567468578     
   105.39076626009742     
   26.940867364192549     
   109.17152951829924     
   22.728760623381493     
   24.635141076792536     
   61.062287743058441     
   23.641240141777235     
   20.992586278319358     
   22.906092906592548     
   60.534342003687804     
   54.166248475435474     
   64.307567070182500     
   22.587663975071361     
   21.413609437087725     
   135.51654797077668     
   21.121304164741215     
   164.56021563527258     
   22.115426367902657     
   21.865558714430655     
   20.322417768669276     
   21.206632145285639     
   21.492262381611376     
   154.78984166883183     
   21.066232018530012     
   21.304950162222170     
   20.952632479877401     
   21.050836828778404     
   20.371069216971811     
   20.906095770329575     
   20.466241882476961     
   20.731885766081401     
   20.629172195349451     
   20.505401262077058     
   20.095317335920541     
   20.305754892481044     
   20.429962640922330     
   20.342048356463032     
   20.290880566388445     
   20.113135514751626     
   20.142258308424637     
   20.231552177266487     
   20.196342122177214     
   20.155142707329990     
   20.026335963267261     
   20.090144778711572     
   20.130247855752945     
   20.101903364889807     
   20.085567333212495     
   20.031149973044275     
   20.040338446685595     
   20.067182456401554     
   20.056146036840776     
   20.043838099513142     
   20.006608326460668     
   20.024431063797284     
   20.036264752004477     
   20.028048648088134     
   20.023203974352221     
   20.008108629609676     
   20.010411829578107     
   20.017942900480453     