# vtk DataFile Version 2.0
temperature
ASCII
DATASET UNSTRUCTURED_GRID
POINTS 9 double
0. 0. 0.
0. 0.5 0.
0. 1. 0.
0.5 0. 0.
0.5 0.5 0.
0.5 1. 0.
1. 0. 0.
1. 0.5 0.
1. 1. 0.
CELLS 4 20
4 0 1 4 3
4 1 2 5 4
4 3 4 7 6
4 4 5 8 7
CELL_TYPES 4
9
9
9
9
CELL_DATA 4
SCALARS T double
LOOKUP_TABLE default
0.0
1.0
2.0
3.0
