# vtk DataFile Version 2.0
 temperature
 ASCII
 DATASET UNSTRUCTURED_GRID
 POINTS           9  double
   0.0000000000000000        0.0000000000000000        0.0000000000000000     
   0.0000000000000000       0.50000000000000000        0.0000000000000000     
   0.0000000000000000        1.0000000000000000        0.0000000000000000     
  0.50000000000000000        0.0000000000000000        0.0000000000000000     
  0.50000000000000000       0.50000000000000000        0.0000000000000000     
  0.50000000000000000        1.0000000000000000        0.0000000000000000     
   1.0000000000000000        0.0000000000000000        0.0000000000000000     
   1.0000000000000000       0.50000000000000000        0.0000000000000000     
   1.0000000000000000        1.0000000000000000        0.0000000000000000     
 CELLS            4          20
           4           0           1           4           3
           4           1           2           5           4
           4           3           4           7           6
           4           4           5           8           7
 CELL_TYPES            4
           9
           9
           9
           9
 CELL_DATA           4
 SCALARS T double
 LOOKUP_TABLE default
   0.0000000000000000     
   1.0000000000000000     
   2.0000000000000000     
   3.0000000000000000     
